LAMMPS data file via write_data, version 23 Jun 2022, timestep = 10000

30 atoms
2 atom types
20 bonds
1 bond types
10 angles
1 angle types

0 20 xlo xhi
0 20 ylo yhi
0 20 zlo zhi

Masses

1 15.9994
2 1

Pair Coeffs # lj/cut/coul/long

1 0.15535 3.166
2 0 0

Bond Coeffs # harmonic

1 1000 1

Angle Coeffs # harmonic

1 100 109.47

Atoms # full

27 9 2 0.4236 5.599248249466263 12.94976971578209 5.034954302006884 1 0 0
25 9 1 -0.8472 6.5263018525701355 12.99910722433699 4.6806144942172905 1 0 0
26 9 2 0.4236 6.511442367950413 13.479673247306003 3.791457980451489 1 0 0
6 2 2 0.4236 7.912947557871243 9.452937758141221 11.888341882077626 1 1 -1
5 2 2 0.4236 8.65047975086768 8.452387668251145 12.953291114277025 1 1 -1
4 2 1 -0.8472 8.626875345197297 8.732039963260506 11.985319436697695 1 1 -1
11 4 2 0.4236 9.91171072277771 10.308747248549807 9.500067625948752 -1 0 0
10 4 1 -0.8472 8.941117906480073 10.211875704991796 9.727510750479073 -1 0 0
8 3 2 0.4236 11.50605126639197 12.157430519627141 15.96509300552395 1 0 -1
7 3 1 -0.8472 12.256867328109795 12.624831461509674 16.42512914872948 1 0 -1
9 3 2 0.4236 13.117203157462516 12.273824157196508 16.03592215800324 1 0 -1
30 10 2 0.4236 8.4328487613227 11.425615401079781 10.534835262993603 0 -1 0
28 10 1 -0.8472 8.10364010418068 12.07479966327341 11.267071276162541 0 -1 0
29 10 2 0.4236 7.598346479055949 12.822762415584418 10.804926492206594 0 -1 0
18 6 2 0.4236 10.078670065523694 14.529058950755251 16.31383274237178 0 0 1
1 1 1 -0.8472 10.910963458174917 14.602937545539177 17.905949112144548 0 -1 1
3 1 2 0.4236 10.90202310312055 14.634612449866788 18.914778816016476 0 -1 1
2 1 2 0.4236 11.537405236079682 13.877514556945867 17.594809555651494 0 -1 1
22 8 1 -0.8472 4.01229303415481 14.761788949467913 11.898547581219928 0 0 0
23 8 2 0.4236 4.363122245984945 14.460276203851146 12.767464177754068 0 0 0
24 8 2 0.4236 3.1351586031130543 15.229206062391095 12.049561494925605 0 0 0
16 6 1 -0.8472 9.559104927573832 13.973296502203972 15.62648272253162 0 0 1
17 6 2 0.4236 9.071183762839755 14.572168373056385 14.99332716668594 0 0 1
20 7 2 0.4236 9.13657867065517 12.47401667726153 15.9333210544993 0 0 -1
14 5 2 0.4236 9.135549606470635 9.428009782806301 15.288672264342571 -1 0 0
21 7 2 0.4236 8.039136060350014 11.521743263840854 16.758568283117388 0 0 -1
19 7 1 -0.8472 8.875663641092471 11.524858801771801 16.181639827777197 0 0 -1
13 5 1 -0.8472 8.354990332512687 8.994246653267274 14.825348602319211 -1 0 0
15 5 2 0.4236 7.594501438988953 9.635756126429321 14.934533674413705 -1 0 0
12 4 2 0.4236 8.860919469178047 9.490925090700681 10.42520887852932 -1 0 0

Velocities

27 0.0066384011067339805 0.01629676086319707 0.0035011241722286922
25 0.0014177845793238106 -0.0017997894825563423 0.00016695071646315667
26 0.008693861954389015 0.0007992523540973847 -0.0019396265781382452
6 0.004219867009635418 -0.0015409904961043496 -0.005957550398416696
5 -0.009471806176449958 0.004888122283089626 0.0047160085108139595
4 -0.007664246924269881 -0.0073941210749287264 5.716052417138326e-05
11 -0.011421701226563712 -0.005409079881120937 0.009862540851354837
10 0.004759359313262912 0.0024371221389515477 0.000527699989619089
8 -0.005685512979557316 -0.007280869909239299 0.025837707117156893
7 0.003026734820761761 0.0009411553686639508 -0.00316293321729195
9 0.009319784267640302 -0.007714818161800048 -0.00405957381382134
30 -0.0045875884613073405 -0.002710936835580489 0.0004087694372552144
28 0.008446376703593609 0.00736304455290001 0.002181681030237456
29 -0.0025408158708057622 -0.013540988448539546 0.007378696125691393
18 0.02337800730016388 -0.008448343686466176 -0.002183408840298706
1 0.0037934406555635326 -0.004731832476085702 -0.0006388390812023011
3 -0.00979496433808112 -0.012318518191000442 0.0010408705425070462
2 0.04486065126493142 0.024305671037262545 0.013046037228173565
22 -0.0025023532771295074 -0.0005525440475296003 -0.0021478830074702507
23 0.010536845222286923 0.02461095065483526 -0.001122298665026656
24 -0.006267457431953708 -0.0243687723333629 0.0036938710359727036
16 0.0011293144659894215 0.007865285735360968 0.0037844652062234106
17 0.009833978398725933 0.003187992031353632 -0.007066205065388457
20 -0.024933670596757666 0.0012603997362816153 0.027337391196739832
14 0.005428622951822313 0.004040158274818065 -0.014256972910500864
21 -0.0023660014341227785 -0.01646924003084396 -0.005297540295728854
19 -0.010903230870430485 0.0018759548497369381 -0.0025102875208570727
13 -0.0045384476952905805 -0.005644234794324793 -0.00043300013084071365
15 0.0030601518430048587 0.006405515590177792 -0.020753639506241203
12 -0.00033818230666861907 0.008247298850398276 0.0006122627195403808

Bonds

1 1 25 26
2 1 25 27
3 1 4 5
4 1 4 6
5 1 10 11
6 1 10 12
7 1 7 8
8 1 7 9
9 1 28 29
10 1 28 30
11 1 1 2
12 1 1 3
13 1 22 23
14 1 22 24
15 1 16 17
16 1 16 18
17 1 19 20
18 1 19 21
19 1 13 14
20 1 13 15

Angles

1 1 26 25 27
2 1 5 4 6
3 1 11 10 12
4 1 8 7 9
5 1 29 28 30
6 1 2 1 3
7 1 23 22 24
8 1 17 16 18
9 1 20 19 21
10 1 14 13 15
