ITEM: TIMESTEP
0
ITEM: NUMBER OF ATOMS
30
ITEM: BOX BOUNDS pp pp pp
0.0000000000000000e+00 2.0000000000000000e+01
0.0000000000000000e+00 2.0000000000000000e+01
0.0000000000000000e+00 2.0000000000000000e+01
ITEM: ATOMS id type x y z
14 2 5.09081 3.9131 0.656753
2 2 18.644 6.91356 0.330176
19 1 11.995 9.96993 7.18792
20 2 11.3479 9.98605 7.95013
21 2 12.9295 9.97219 7.54392
25 1 2.50298 10.2842 0.969584
26 2 2.57855 10.432 1.95569
27 2 2.48865 11.1671 0.500323
4 1 18.724 18.8445 0.867316
5 2 19.3473 18.2377 0.374087
6 2 18.894 18.7697 1.84989
7 1 18.1658 17.9398 7.28471
8 2 18.6603 17.1893 7.72314
9 2 18.5611 18.1179 6.38361
13 1 4.92913 3.18271 19.9932
15 2 4.53892 3.57116 19.1584
1 1 18.2711 6.31627 19.6201
3 2 17.724 6.85816 18.9821
22 1 11.8131 6.49775 14.849
23 2 12.6949 6.09414 14.6048
24 2 11.4103 6.93114 14.0428
28 1 11.422 3.25975 13.6363
29 2 12.0283 3.9451 13.233
30 2 10.5611 3.23604 13.1282
10 1 2.01475 13.873 12.0355
11 2 1.44647 14.2511 11.3047
12 2 2.89219 13.5785 11.6569
16 1 6.13994 10.2325 14.2544
17 2 6.58809 10.9114 14.836
18 2 5.70547 10.6919 13.4797
ITEM: TIMESTEP
100
ITEM: NUMBER OF ATOMS
30
ITEM: BOX BOUNDS pp pp pp
0.0000000000000000e+00 2.0000000000000000e+01
0.0000000000000000e+00 2.0000000000000000e+01
0.0000000000000000e+00 2.0000000000000000e+01
ITEM: ATOMS id type x y z
14 2 5.10523 3.91707 0.633692
2 2 18.7986 6.93708 0.264084
19 1 11.9747 10.0203 7.18775
20 2 11.3518 9.97094 7.96854
21 2 12.9188 9.95296 7.51079
25 1 2.29138 10.2956 1.01708
26 2 2.65939 10.4208 1.93865
27 2 2.5188 11.0937 0.458682
4 1 18.7914 18.3187 1.08013
5 2 19.3128 18.4846 0.24187
6 2 18.9021 19.1001 1.69394
7 1 18.2389 17.9871 7.35011
8 2 18.6643 17.1353 7.65473
9 2 18.4415 18.1329 6.38156
13 1 4.86418 3.1661 20.0187
15 2 4.50178 3.53977 19.1648
1 1 18.2718 6.33506 19.6633
3 2 17.7535 6.88875 19.0117
22 1 11.892 5.96198 14.2616
23 2 12.6754 6.13329 14.8622
24 2 11.4223 6.82884 14.0843
28 1 11.5495 3.43024 13.2729
29 2 11.7313 4.36783 13.6021
30 2 10.5912 3.21151 13.4516
10 1 2.0977 13.6856 11.9898
11 2 1.4178 14.2723 11.549
12 2 2.95302 13.7233 11.4731
16 1 6.40756 10.3914 14.0421
17 2 6.48396 10.8377 14.9337
18 2 5.52705 10.6267 13.6296
