ITEM: TIMESTEP
0
ITEM: NUMBER OF ATOMS
150
ITEM: BOX BOUNDS pp pp pp
0.0000000000000000e+00 2.0000000000000000e+01
0.0000000000000000e+00 2.0000000000000000e+01
0.0000000000000000e+00 2.0000000000000000e+01
ITEM: ATOMS id type x y z
14 2 5.09081 3.9131 0.656753
34 1 9.29214 1.55901 2.88149
35 2 8.61856 2.09254 3.39295
36 2 9.78881 2.16082 2.25613
46 1 4.08214 5.91062 8.21308
47 2 3.53356 6.43307 8.86581
48 2 5.05155 6.10728 8.35976
58 1 0.731464 0.126794 8.55751
59 2 0.615806 0.15433 9.5504
60 2 1.44449 0.773579 8.28694
82 1 9.04029 5.90494 5.96545
83 2 9.4934 6.57729 6.55078
84 2 9.62352 5.70053 5.17932
97 1 1.5933 2.76718 6.10638
98 2 1.42591 2.89486 5.12881
99 2 1.9863 1.86088 6.26167
127 1 5.96826 0.781174 7.37981
128 2 5.72353 1.39899 6.63256
129 2 5.1442 0.330795 7.72336
133 1 7.83199 3.81814 0.808637
134 2 7.60762 4.03743 1.75813
135 2 8.54041 4.44306 0.480676
145 1 8.23148 5.87765 9.07475
146 2 8.66988 6.39614 9.80888
147 2 7.71807 6.50216 8.48625
2 2 18.644 6.91356 0.330176
19 1 11.995 9.96993 7.18792
20 2 11.3479 9.98605 7.95013
21 2 12.9295 9.97219 7.54392
37 1 17.703 3.26685 8.34484
38 2 18.5214 3.81384 8.5206
39 2 17.3896 3.4271 7.40885
67 1 13.1022 6.79311 2.93696
68 2 13.634 7.51931 3.37271
69 2 13.6303 5.94398 2.94278
71 2 15.9988 0.0218739 6.52157
101 2 14.8833 5.75008 9.9425
142 1 11.8139 3.97041 8.96293
143 2 12.1516 4.90598 8.86002
144 2 11.242 3.7342 8.17736
25 1 2.50298 10.2842 0.969584
26 2 2.57855 10.432 1.95569
27 2 2.48865 11.1671 0.500323
61 1 1.57687 13.5926 1.02357
62 2 2.21332 14.239 1.44437
63 2 0.928199 14.0904 0.447928
73 1 5.24114 15.5424 0.606218
74 2 5.59124 16.0233 1.41005
76 1 6.89581 13.5969 3.18029
77 2 7.34501 14.2091 3.83104
78 2 6.28884 14.1271 2.58833
103 1 6.57432 17.3018 6.70806
104 2 7.08936 17.6509 7.4909
105 2 6.08482 18.0549 6.26851
111 2 9.85965 11.3894 4.19286
130 1 1.98202 17.3132 3.73148
131 2 1.97551 17.0122 4.68507
132 2 1.63613 18.2498 3.67519
4 1 18.724 18.8445 0.867316
5 2 19.3473 18.2377 0.374087
6 2 18.894 18.7697 1.84989
7 1 18.1658 17.9398 7.28471
8 2 18.6603 17.1893 7.72314
9 2 18.5611 18.1179 6.38361
49 1 16.0794 10.8843 5.94386
50 2 16.1757 10.352 5.10283
51 2 15.1914 11.344 5.94753
70 1 15.3146 19.4376 6.95793
72 2 14.5567 19.2815 6.32446
109 1 10.6642 11.1386 4.73111
110 2 10.7044 11.7051 5.55417
112 1 10.7523 17.4137 9.42195
114 2 10.1959 17.8 8.68629
115 1 13.5647 17.9842 3.60344
116 2 14.2371 18.2306 4.30143
117 2 13.9555 17.2956 2.99261
13 1 4.92913 3.18271 19.9932
15 2 4.53892 3.57116 19.1584
52 1 7.34589 5.87129 13.2189
53 2 7.7904 5.41233 12.4497
54 2 6.69496 6.54696 12.873
55 1 2.53977 8.98827 14.1074
56 2 2.94107 9.78117 14.5659
57 2 2.74591 8.1612 14.6303
124 1 0.372225 9.73143 17.9677
136 1 3.73604 1.30501 14.787
137 2 4.53745 1.48208 15.3583
138 2 3.2113 2.14923 14.678
1 1 18.2711 6.31627 19.6201
3 2 17.724 6.85816 18.9821
22 1 11.8131 6.49775 14.849
23 2 12.6949 6.09414 14.6048
24 2 11.4103 6.93114 14.0428
28 1 11.422 3.25975 13.6363
29 2 12.0283 3.9451 13.233
30 2 10.5611 3.23604 13.1282
31 1 18.8939 6.79838 12.8559
32 2 18.7489 5.87024 12.5131
33 2 18.9027 7.43951 12.0885
88 1 18.0969 4.11877 15.2758
89 2 18.5009 4.73395 15.9528
90 2 17.4876 4.63725 14.676
91 1 13.5365 9.95657 13.8646
93 2 12.7075 9.72074 14.3716
100 1 14.4148 6.58915 10.2189
102 2 14.1599 6.5262 11.1838
106 1 18.1689 0.338152 15.4348
107 2 18.7792 0.701046 16.139
108 2 18.561 0.5129 14.5316
118 1 14.4682 1.47254 11.9252
119 2 15.3441 1.68784 12.3569
120 2 14.2945 0.490261 11.9953
121 1 14.0915 1.35857 19.5924
122 2 13.7911 0.477577 19.9579
123 2 13.8609 1.41239 18.6209
10 1 2.01475 13.873 12.0355
11 2 1.44647 14.2511 11.3047
12 2 2.89219 13.5785 11.6569
16 1 6.13994 10.2325 14.2544
17 2 6.58809 10.9114 14.836
18 2 5.70547 10.6919 13.4797
45 2 9.53631 13.7875 13.9212
75 2 5.70998 15.8754 19.7882
79 1 0.253737 17.7608 13.454
80 2 1.075 17.4631 12.9673
81 2 0.205983 18.7596 13.4473
148 1 0.943125 14.2244 14.8252
149 2 0.99783 15.2228 14.8406
150 2 0.192882 13.9409 14.228
40 1 12.7875 17.6943 19.9889
41 2 13.3396 18.2199 19.3416
42 2 12.0066 17.292 19.5111
43 1 10.4434 14.0613 13.6017
44 2 10.6708 14.9608 13.9748
64 1 15.7915 14.8136 18.2151
65 2 15.5111 13.917 18.558
66 2 15.6948 15.4936 18.9418
85 1 10.4118 12.1591 18.829
86 2 10.7702 13.0318 19.1606
87 2 10.1357 12.254 17.8726
92 2 14.2088 10.352 14.4904
94 1 18.789 12.4433 11.2259
95 2 18.1134 11.7357 11.4327
96 2 19.2656 12.2114 10.3779
113 2 11.0202 18.1408 10.0541
125 2 19.9703 10.0112 17.0958
126 2 19.8556 10.141 18.7195
139 1 15.6962 13.8932 12.424
140 2 16.271 14.4707 13.0037
141 2 14.955 14.4419 12.0374
ITEM: TIMESTEP
100
ITEM: NUMBER OF ATOMS
150
ITEM: BOX BOUNDS pp pp pp
0.0000000000000000e+00 2.0000000000000000e+01
0.0000000000000000e+00 2.0000000000000000e+01
0.0000000000000000e+00 2.0000000000000000e+01
ITEM: ATOMS id type x y z
14 2 3.77751 3.04079 19.6271
34 1 9.5673 2.00055 3.02871
35 2 9.9248 2.35798 2.16548
36 2 8.78544 2.56575 3.31126
46 1 4.38504 6.27986 8.03864
47 2 4.56339 5.41666 7.55913
48 2 5.25236 6.77677 7.98289
58 1 0.4764 0.302416 8.85492
59 2 0.178989 19.5491 9.44039
60 2 19.7382 0.979401 8.81445
82 1 9.20131 5.66503 5.82071
83 2 9.07572 5.66862 4.82501
84 2 9.30816 6.62556 6.08342
97 1 1.45763 2.67289 6.57966
98 2 1.14101 2.22569 7.391
99 2 1.49308 1.9588 5.84721
127 1 6.11258 1.18145 7.02758
128 2 7.08628 1.43371 7.11363
129 2 5.68704 1.28309 7.91862
133 1 8.27484 3.3851 0.864959
134 2 8.3001 4.07087 1.5917
135 2 8.23957 3.78038 19.9395
145 1 7.82197 5.49709 9.52526
146 2 8.00351 6.18037 8.80586
147 2 8.24864 4.64656 9.23702
2 2 17.9359 6.67349 0.884565
19 1 11.7931 9.74974 6.89043
20 2 12.7217 9.7292 6.4641
21 2 11.65 8.8796 7.32333
37 1 18.0863 3.78656 8.11591
38 2 18.7338 3.78036 7.35268
39 2 18.1929 4.63253 8.62245
67 1 12.4853 6.0886 3.14206
68 2 12.8618 7.00542 3.01386
69 2 12.631 5.57611 2.29207
71 2 15.4254 0.0599975 6.50015
101 2 14.8203 7.50232 10.5333
142 1 11.7769 3.92672 8.45574
143 2 12.3598 4.53381 9.02389
144 2 12.3513 3.41007 7.83673
25 1 2.6409 10.4948 1.33774
26 2 3.19598 10.6031 2.18327
27 2 2.24965 11.3747 1.10985
61 1 2.26963 13.1286 0.390669
62 2 2.43427 13.9365 19.8075
63 2 1.35164 12.8086 0.174302
73 1 5.1165 15.8373 1.06536
74 2 5.38464 16.8031 0.974797
76 1 6.92181 13.7165 3.55017
77 2 6.93537 14.2491 4.41004
78 2 6.13414 13.968 2.98439
103 1 6.89769 17.5896 7.1312
104 2 7.82419 17.7775 6.76411
105 2 6.33272 18.4097 7.07331
111 2 10.8041 11.253 5.20455
130 1 2.24689 16.8803 3.31784
131 2 2.58989 17.0711 2.38095
132 2 2.57049 15.9914 3.61533
4 1 18.9463 19.3022 0.782706
5 2 18.726 0.112926 1.34353
6 2 19.0379 19.5862 19.8393
7 1 18.1303 17.806 6.90556
8 2 18.4018 17.8194 5.92501
9 2 17.14 17.8103 6.91327
49 1 15.9416 11.2535 5.18014
50 2 16.1602 11.8327 5.98504
51 2 16.0078 11.8117 4.35907
70 1 15.6041 19.1484 6.84936
72 2 16.279 19.2623 7.60129
109 1 10.5334 10.9318 4.27229
110 2 11.2527 10.4083 3.86304
112 1 10.204 17.6985 9.43388
114 2 10.158 17.01 8.70725
115 1 13.855 17.9759 4.00414
116 2 13.7037 17.6311 3.0755
117 2 13.1085 18.6182 4.18041
13 1 4.40019 3.82026 19.4373
15 2 4.50566 3.96376 18.4652
52 1 7.23596 5.75746 12.8089
53 2 6.99787 5.98707 11.841
54 2 6.69094 4.96799 13.0122
55 1 2.68563 9.00681 14.5736
56 2 2.32449 8.19781 14.0564
57 2 2.80184 9.73832 13.9225
124 1 0.587088 9.63048 18.0563
136 1 4.20542 2.07798 14.9153
137 2 3.90898 1.13247 15.0089
138 2 3.49886 2.71761 14.5742
1 1 17.9097 6.04086 0.0998704
3 2 18.3941 6.42573 19.3087
22 1 11.9961 7.35426 15.2014
23 2 12.3399 8.20661 14.8328
24 2 11.6867 6.73116 14.4527
28 1 11.6863 2.66693 13.7461
29 2 11.7744 2.78672 14.7582
30 2 10.7363 2.64938 13.4918
31 1 18.35 7.20579 12.6925
32 2 18.7433 7.16433 11.758
33 2 17.4427 6.81631 12.6865
88 1 17.8423 4.08704 15.1252
89 2 17.958 3.10911 15.1082
90 2 17.0613 4.28157 15.7573
91 1 13.2486 9.47277 13.4424
93 2 14.2238 9.75946 13.5746
100 1 14.7301 6.51184 10.3595
102 2 15.2304 6.2261 9.55037
106 1 17.8176 1.0545 15.7361
107 2 17.0831 1.09725 15.0468
108 2 18.6098 0.580123 15.3507
118 1 14.4138 1.98168 12.1877
119 2 15.1154 1.82717 12.8877
120 2 13.5772 2.22336 12.6787
121 1 13.5554 0.77214 19.9534
122 2 13.5554 19.8004 19.6933
123 2 14.3946 1.23958 19.6581
10 1 1.6724 13.5137 11.9929
11 2 0.990876 13.4335 12.7093
12 2 1.25399 13.5192 11.0619
16 1 6.24107 10.1104 14.4597
17 2 6.38605 10.45 15.3843
18 2 5.60477 9.32506 14.4561
45 2 10.3584 13.2208 13.1013
75 2 5.98224 15.3374 1.06953
79 1 0.262967 17.7399 13.5663
80 2 0.17046 18.2389 12.7161
81 2 1.23973 17.7542 13.8518
148 1 19.895 14.0338 14.6325
149 2 0.365577 14.8631 14.2972
150 2 0.101457 13.8386 15.5909
40 1 13.4053 18.201 19.8615
41 2 12.6676 18.071 0.520179
42 2 13.212 17.6166 19.0658
43 1 10.7872 13.669 13.8917
44 2 10.9866 12.9405 14.5483
64 1 15.6904 14.4589 18.5499
65 2 15.6528 14.6406 17.5837
66 2 16.6414 14.4862 18.9101
85 1 10.6712 12.4231 18.52
86 2 10.2024 11.7989 19.178
87 2 10.2603 13.309 18.568
92 2 13.1285 9.15897 12.5285
94 1 19.3469 12.225 11.1771
95 2 19.136 11.7299 12.0398
96 2 18.897 11.7511 10.435
113 2 9.29411 18.1023 9.53652
125 2 0.99475 9.31742 17.2052
126 2 1.17624 9.31909 18.8266
139 1 15.5447 13.6929 12.4605
140 2 16.2653 13.7786 13.1502
141 2 15.1298 14.5758 12.2139
ITEM: TIMESTEP
200
ITEM: NUMBER OF ATOMS
150
ITEM: BOX BOUNDS pp pp pp
0.0000000000000000e+00 2.0000000000000000e+01
0.0000000000000000e+00 2.0000000000000000e+01
0.0000000000000000e+00 2.0000000000000000e+01
ITEM: ATOMS id type x y z
14 2 3.62553 5.12691 18.9134
34 1 9.93491 2.3599 3.2298
35 2 9.36931 2.89949 3.85218
36 2 9.37013 1.61818 2.85434
46 1 4.73439 6.52401 7.89395
47 2 5.11399 7.12524 8.5966
48 2 4.58799 5.66225 8.36724
58 1 19.7502 0.461973 8.98771
59 2 0.270799 20.0315 8.25047
60 2 0.399581 0.89587 9.62467
82 1 9.24526 5.49322 5.80234
83 2 9.06496 6.46874 5.66737
84 2 10.021 5.4562 6.43013
97 1 1.09014 2.53793 7.23317
98 2 0.510403 1.78418 7.48331
99 2 0.465157 3.36095 7.23003
127 1 6.4856 1.37384 6.87068
128 2 6.78996 2.27876 7.19015
129 2 5.7065 1.51614 6.26422
133 1 8.42725 3.09249 0.778732
134 2 8.36837 4.06189 0.549543
135 2 9.1153 2.57413 0.269033
145 1 7.77123 5.12866 9.51356
146 2 8.1075 4.70362 8.66056
147 2 7.83093 4.44626 10.2424
2 2 17.6082 5.70094 1.37867
19 1 11.6892 9.54296 6.23868
20 2 11.1801 8.87474 6.8118
21 2 12.5241 9.75334 6.71948
37 1 19.0403 4.05146 7.80184
38 2 18.5278 4.67856 7.19484
39 2 18.3858 3.70991 8.48666
67 1 11.7883 5.45007 3.18028
68 2 12.5103 5.06871 2.60871
69 2 11.4127 4.70662 3.73879
71 2 15.5285 19.0974 5.95808
101 2 15.5469 6.14306 11.0548
142 1 11.6639 4.03481 8.29001
143 2 11.9127 3.61379 9.16959
144 2 12.4978 4.13998 7.76224
25 1 2.8441 10.0822 1.78963
26 2 3.53414 9.72176 1.14937
27 2 2.48023 10.9286 1.41458
61 1 2.81424 13.2458 19.6558
62 2 3.78765 13.3752 -0.127842
63 2 2.53753 14.0751 19.1792
73 1 4.93309 15.9092 1.69366
74 2 5.85203 15.8325 1.31337
76 1 6.53131 14.2005 3.69434
77 2 6.29234 13.7492 2.83742
78 2 7.36552 13.8146 4.08515
103 1 7.45956 18.0905 7.45535
104 2 7.28194 19.062 7.70764
105 2 6.59336 17.6173 7.35108
111 2 10.7411 10.142 5.03671
130 1 2.69066 16.2829 2.85686
131 2 3.27221 16.1839 2.04079
132 2 1.76988 16.5479 2.61611
4 1 19.0806 19.8063 0.515454
5 2 18.7696 20.1129 1.43027
6 2 20.0261 19.5175 0.623876
7 1 18.4401 17.6362 6.53239
8 2 17.757 18.3945 6.58695
9 2 19.1547 17.7799 7.19664
49 1 15.7659 11.7419 4.48163
50 2 14.7797 11.6967 4.6422
51 2 16.2255 11.1729 5.14814
70 1 15.629 19.1313 6.94353
72 2 14.7179 19.3774 7.31721
109 1 10.6376 10.625 4.14073
110 2 11.1952 10.2022 3.43942
112 1 9.36959 17.8624 9.25879
114 2 9.43348 16.8772 9.399
115 1 14.013 18.1075 4.25377
116 2 13.6412 18.9443 3.84833
117 2 13.9612 17.4308 3.52116
13 1 4.10346 4.24497 18.8267
15 2 3.5437 3.57487 18.359
52 1 7.01561 5.43969 12.3718
53 2 7.17638 6.30802 12.8735
54 2 7.09534 5.69457 11.4187
55 1 2.95213 9.12172 14.9498
56 2 2.57805 8.24622 15.292
57 2 2.17528 9.65775 14.6764
124 1 1.1961 9.4867 18.1669
136 1 4.43323 2.83649 15.0793
137 2 4.43212 1.88751 14.7844
138 2 5.11184 3.41897 14.6235
1 1 17.7045 5.88587 0.409023
3 2 17.7044 6.85787 0.226325
22 1 12.1638 8.10681 15.7587
23 2 12.6669 7.27579 15.582
24 2 12.2473 8.76125 14.9878
28 1 11.8969 2.02098 13.9781
29 2 11.1438 2.67875 14.1705
30 2 11.6151 1.0821 14.1204
31 1 17.7627 7.47056 12.5479
32 2 18.3586 6.78653 12.1082
33 2 17.7755 7.3086 13.5234
88 1 17.4864 4.23233 14.8194
89 2 17.5581 3.33578 14.4178
90 2 17.3365 4.0498 15.8005
91 1 13.0213 8.99955 12.7656
93 2 13.9199 9.40539 13.0237
100 1 15.0738 6.59021 10.2706
102 2 15.6442 7.28006 9.84891
106 1 17.564 1.37386 15.9765
107 2 16.9295 1.08825 16.7007
108 2 18.3926 0.826216 16.0291
118 1 14.3151 2.72784 12.3422
119 2 14.1238 3.63755 12.7271
120 2 13.4415 2.23501 12.4267
121 1 13.3183 0.951236 0.360271
122 2 13.5514 0.71867 19.4104
123 2 12.8346 1.83817 0.414063
10 1 1.53306 13.5689 12.1169
11 2 1.0016 14.1483 12.7195
12 2 1.12911 12.6619 11.9158
16 1 6.03814 9.86645 14.7594
17 2 5.93934 10.5583 14.0509
18 2 5.16724 9.68478 15.2327
45 2 10.334 12.967 13.7375
75 2 5.06601 15.7084 2.66196
79 1 0.443086 17.6131 13.5559
80 2 0.653379 17.8343 14.4934
81 2 20.0763 16.6728 13.5327
148 1 18.9078 13.9812 14.3926
149 2 18.2554 13.5154 14.998
150 2 19.1757 13.4175 13.6136
40 1 13.7943 17.6182 19.7414
41 2 14.7506 17.4967 19.4758
42 2 13.7827 18.2112 0.558674
43 1 11.2083 13.174 14.1799
44 2 11.0353 13.1551 15.1598
64 1 15.5616 14.3114 18.7336
65 2 15.1254 14.7062 19.5285
66 2 16.4098 13.8123 18.971
85 1 10.769 12.6463 18.3537
86 2 11.4298 12.9296 17.6303
87 2 10.8508 11.6754 18.5084
92 2 12.9324 9.06156 11.7841
94 1 19.4015 11.7474 11.331
95 2 18.7516 12.4439 10.9945
96 2 19.6718 11.2102 10.5373
113 2 9.02766 17.9746 8.32143
125 2 1.87473 10.0732 17.7378
126 2 0.999503 9.7817 19.1092
139 1 15.5569 13.3706 12.4109
140 2 15.7314 14.3498 12.4802
141 2 15.0183 13.022 13.1774
ITEM: TIMESTEP
300
ITEM: NUMBER OF ATOMS
150
ITEM: BOX BOUNDS pp pp pp
0.0000000000000000e+00 2.0000000000000000e+01
0.0000000000000000e+00 2.0000000000000000e+01
0.0000000000000000e+00 2.0000000000000000e+01
ITEM: ATOMS id type x y z
14 2 4.38991 5.46392 18.4012
34 1 9.95233 2.51932 3.4397
35 2 10.6332 2.16572 2.79165
36 2 9.06138 2.54703 2.9746
46 1 5.18508 6.6656 7.95078
47 2 5.44263 5.759 8.30499
48 2 4.18343 6.72582 7.87276
58 1 19.1673 0.372046 9.22134
59 2 19.5972 19.4934 9.41219
60 2 19.884 1.06764 9.2729
82 1 9.5065 5.18355 6.3051
83 2 9.81235 4.51079 5.62454
84 2 10.0102 4.91041 7.14233
97 1 1.35955 2.09679 7.61767
98 2 0.86091 2.9588 7.76878
99 2 0.939412 1.64314 6.84686
127 1 6.62504 1.66343 6.55624
128 2 6.0627 2.43441 6.26327
129 2 6.96879 1.18959 5.74122
133 1 8.5961 2.73421 0.877735
134 2 8.50748 1.8189 0.478979
135 2 8.31353 3.45178 20.2322
145 1 7.92606 4.78967 9.6054
146 2 8.68887 4.24938 9.95433
147 2 8.26465 5.36427 8.85412
2 2 18.3283 5.24493 0.870747
19 1 11.6091 9.00317 6.11773
20 2 11.1136 9.06946 6.97744
21 2 12.5639 8.75331 6.3198
37 1 19.2001 4.88256 7.68858
38 2 18.7756 5.39928 8.43683
39 2 18.5473 4.17708 7.41211
67 1 11.4435 5.04424 3.27525
68 2 10.4938 4.72955 3.34788
69 2 11.4714 6.0409 3.37042
71 2 15.0112 18.8235 5.9249
101 2 16.2326 6.97251 11.078
142 1 11.2485 4.37829 8.04854
143 2 11.1837 3.39062 8.1671
144 2 12.153 4.6778 8.38869
25 1 2.83785 10.0242 1.63418
26 2 3.13558 10.9252 1.93079
27 2 3.06289 9.36244 2.36484
61 1 3.66334 13.1294 19.1929
62 2 3.18503 13.7828 -0.218469
63 2 2.9801 12.5513 18.7405
73 1 5.14341 15.8219 1.73988
74 2 5.84403 15.9139 1.02461
76 1 6.66742 14.2239 3.88819
77 2 6.42599 14.9514 4.53358
78 2 6.5658 13.3198 4.31426
103 1 7.24045 18.5493 7.14139
104 2 7.29034 18.7578 6.16317
105 2 7.07695 19.3946 7.66189
111 2 11.3353 10.2696 4.13985
130 1 2.3569 15.8617 2.76324
131 2 3.17888 16.2257 2.29858
132 2 1.7927 16.6274 3.11889
4 1 19.2892 0.292243 0.306451
5 2 18.585 19.8564 0.862401
6 2 19.9697 19.6071 20.0412
7 1 18.504 17.7842 6.47879
8 2 18.1644 17.3683 7.32252
9 2 17.7299 18.191 5.97903
49 1 15.5513 12.0631 3.83197
50 2 15.0353 12.4227 3.05291
51 2 14.918 11.9298 4.61116
70 1 15.835 18.7025 6.50682
72 2 15.6984 19.3052 7.29204
109 1 10.6234 10.5898 3.53827
110 2 9.76735 10.0596 3.6544
112 1 9.34909 17.9256 9.74881
114 2 8.69919 17.1933 9.97778
115 1 14.0359 18.473 4.55529
116 2 13.0647 18.2277 4.48374
117 2 14.5093 17.64 4.8577
13 1 3.83886 4.66366 18.1776
15 2 4.39971 3.97709 17.6886
52 1 6.69311 5.13504 12.0389
53 2 6.87927 6.10676 11.9832
54 2 7.14268 4.7423 11.2187
55 1 3.0444 9.35495 15.7365
56 2 2.67275 9.76398 16.574
57 2 2.34433 9.4702 15.0139
124 1 2.00589 9.51557 18.1297
136 1 4.79442 3.63417 15.1874
137 2 4.0598 3.7183 14.5005
138 2 5.67143 3.84585 14.7555
1 1 17.4627 5.74058 0.685167
3 2 17.5549 6.70563 0.98262
22 1 12.3022 8.69949 16.0719
23 2 12.7746 9.58696 16.2037
24 2 12.4759 8.34973 15.1569
28 1 11.6531 1.51861 14.389
29 2 11.121 1.76297 13.5932
30 2 11.2929 0.6887 14.8313
31 1 16.9795 7.104 12.4773
32 2 17.0492 6.44946 13.2429
33 2 16.8687 8.0451 12.8434
88 1 17.199 4.99765 14.2645
89 2 17.6115 4.09422 14.4935
90 2 16.6224 5.22477 15.0484
91 1 13.0169 8.63351 12.3825
93 2 12.8722 8.82249 11.4236
100 1 15.5382 6.85407 10.3407
102 2 14.6319 6.93824 10.7266
106 1 17.4392 1.40747 16.3398
107 2 17.2517 1.02799 17.2536
108 2 17.4828 0.660726 15.6679
118 1 14.4728 3.49138 12.139
119 2 14.9351 2.63544 12.3375
120 2 14.6755 4.11396 12.8998
121 1 13.1199 0.864526 0.520052
122 2 12.9266 1.85131 0.484573
123 2 12.9041 0.441924 1.38283
10 1 1.17215 13.4348 12.4292
11 2 1.87452 13.9849 11.961
12 2 0.622982 12.8652 11.8237
16 1 5.7218 9.64528 14.8175
17 2 5.55863 10.3227 14.0997
18 2 4.88785 9.4777 15.3482
45 2 11.1577 11.9627 14.7513
75 2 5.3924 14.9591 2.22363
79 1 0.454904 17.2792 13.8134
80 2 -0.083518 16.7286 13.1614
81 2 20.217 16.9696 14.7364
148 1 18.0597 13.9718 13.8485
149 2 18.9362 13.694 13.4424
150 2 17.2807 13.519 13.3804
40 1 14.5004 17.2174 19.8244
41 2 13.9132 18.0285 -0.204418
42 2 13.9153 16.4267 19.9574
43 1 11.5927 12.8376 14.5382
44 2 11.5191 13.4118 15.3638
64 1 15.2457 14.2772 19.0949
65 2 15.6381 15.0106 18.5173
66 2 15.5776 14.3839 20.0258
85 1 11.1169 12.7245 17.914
86 2 10.7462 11.8205 17.7378
87 2 11.4321 12.7665 18.8691
92 2 13.4895 7.74226 12.4628
94 1 19.3368 11.6401 11.5816
95 2 19.6468 11.5643 10.6382
96 2 18.8317 10.7927 11.7946
113 2 9.01388 18.3102 8.87682
125 2 2.16181 9.89032 19.0556
126 2 1.92766 8.5245 18.1558
139 1 15.6839 12.9883 12.5492
140 2 15.5938 12.2809 11.8381
141 2 15.1054 13.7754 12.3098
ITEM: TIMESTEP
400
ITEM: NUMBER OF ATOMS
150
ITEM: BOX BOUNDS pp pp pp
0.0000000000000000e+00 2.0000000000000000e+01
0.0000000000000000e+00 2.0000000000000000e+01
0.0000000000000000e+00 2.0000000000000000e+01
ITEM: ATOMS id type x y z
14 2 4.62434 5.24117 18.0386
34 1 9.27204 1.92462 3.91136
35 2 9.62276 2.86262 3.86107
36 2 9.23953 1.57123 2.976
46 1 5.71322 6.57057 8.09727
47 2 4.78508 6.92677 8.05118
48 2 5.7688 5.57775 7.9659
58 1 18.3834 0.180078 9.4702
59 2 18.7042 19.3255 9.0421
60 2 19.1509 0.577553 9.98197
82 1 9.27554 4.85282 6.28899
83 2 9.42723 5.0642 5.32333
84 2 10.0861 4.35443 6.60817
97 1 1.5396 2.05472 7.67443
98 2 1.52912 2.10867 6.64243
99 2 2.47 2.15085 7.96537
127 1 6.72427 1.99427 6.02265
128 2 7.29079 2.51948 6.65005
129 2 7.16906 1.97402 5.1151
133 1 8.73536 2.35864 0.889962
134 2 8.23753 3.14438 0.506946
135 2 8.94242 1.7369 0.129009
145 1 8.1411 4.81008 9.6078
146 2 8.61082 4.24056 8.93857
147 2 8.05404 5.74956 9.2399
2 2 17.5058 5.17956 0.0876616
19 1 11.3623 8.73054 5.5061
20 2 10.9656 8.3125 6.30669
21 2 11.8667 8.01302 4.97727
37 1 19.2493 5.38496 7.71793
38 2 19.3917 4.92673 6.84287
39 2 19.6401 4.8344 8.45959
67 1 11.3609 5.68223 3.48849
68 2 12.2205 6.10712 3.19022
69 2 11.2564 4.80253 3.02505
71 2 16.2977 19.7727 6.66117
101 2 15.7111 6.64619 10.6849
142 1 11.4976 4.29941 8.46924
143 2 12.4078 4.60552 8.71953
144 2 10.831 4.67939 9.13081
25 1 2.81358 10.1384 1.5646
26 2 2.25255 10.9502 1.57175
27 2 3.46536 10.1897 2.33807
61 1 4.28504 13.0864 19.0707
62 2 3.54646 12.6455 18.5675
63 2 4.84595 12.4052 19.5598
73 1 5.0321 15.6499 1.65274
74 2 5.45812 14.7735 1.802
76 1 6.75421 14.1109 4.25899
77 2 7.29156 14.1171 5.0961
78 2 6.9045 14.9535 3.73406
103 1 7.11274 18.9274 7.04126
104 2 7.31039 19.1414 6.09366
105 2 7.49801 18.0247 7.2703
111 2 10.6115 9.5057 4.04521
130 1 2.31415 15.5665 2.55373
131 2 3.25856 15.4056 2.30076
132 2 2.13696 15.1998 3.46818
4 1 19.3632 0.673639 -0.0460119
5 2 18.6484 20.0069 0.115742
6 2 0.258856 0.277043 0.20549
7 1 18.9005 17.7098 6.62275
8 2 18.5742 18.1593 5.80399
9 2 18.6996 16.7136 6.59691
49 1 15.1867 12.3604 3.15807
50 2 14.9989 11.3932 3.13514
51 2 14.3353 12.8543 3.33804
70 1 16.0023 18.8244 6.46727
72 2 16.0581 18.3538 7.3304
109 1 10.8083 10.2927 3.46566
110 2 10.9178 11.1205 4.05126
112 1 9.25474 18.108 9.9512
114 2 8.49104 18.7104 10.1517
115 1 13.6734 18.5265 4.53436
116 2 12.9727 18.4889 5.24286
117 2 14.5567 18.715 4.96883
13 1 3.81491 5.1437 17.4836
15 2 4.10459 5.14038 16.5064
52 1 6.22191 4.70685 11.9127
53 2 6.42987 5.67052 11.9871
54 2 6.91821 4.3054 11.2775
55 1 3.19028 9.82619 15.8318
56 2 2.79679 9.91279 16.74
57 2 2.4843 9.37476 15.2438
124 1 2.66932 9.21498 18.6984
136 1 5.19638 4.49736 15.0506
137 2 5.17072 4.3296 14.0545
138 2 5.56234 5.41438 15.1374
1 1 17.2824 5.63098 0.931375
3 2 18.0635 5.55921 1.52756
22 1 12.537 9.57453 15.8874
23 2 12.279 8.59887 15.7623
24 2 13.3437 9.75467 15.3519
28 1 11.5705 1.11471 14.545
29 2 10.7756 0.696337 14.134
30 2 11.739 0.66048 15.446
31 1 16.3366 7.52104 12.4867
32 2 16.4272 7.05415 13.348
33 2 17.0812 8.19667 12.3924
88 1 16.9438 4.66968 14.7448
89 2 16.1296 4.30763 14.2568
90 2 17.044 4.18492 15.5914
91 1 12.99 8.10081 12.5807
93 2 12.5407 7.99297 11.7179
100 1 15.4144 6.9661 9.78974
102 2 16.2067 7.38859 9.3177
106 1 17.3548 1.75583 16.3827
107 2 17.7471 1.79335 17.2929
108 2 16.929 0.862972 16.2375
118 1 14.7175 4.25958 12.0848
119 2 14.8536 3.8594 11.1811
120 2 14.0435 3.71886 12.6086
121 1 13.0894 0.708998 0.79769
122 2 13.1251 -0.155762 20.268
123 2 12.6096 0.605688 1.66875
10 1 0.861842 13.6316 12.8779
11 2 0.379112 12.7449 12.7428
12 2 0.638265 13.9774 13.7824
16 1 5.58807 9.43069 14.728
17 2 6.21794 9.84229 15.4016
18 2 4.65159 9.78589 14.8862
45 2 11.5701 11.7376 14.85
75 2 4.71839 15.68 0.703155
79 1 0.259207 16.6489 14.1004
80 2 19.6654 16.3121 14.8384
81 2 -0.125225 16.3373 13.248
148 1 17.9462 14.3829 13.0978
149 2 17.3604 15.1818 13.0006
150 2 17.3523 13.5978 13.2867
40 1 14.886 17.1717 19.7957
41 2 15.129 17.561 18.8972
42 2 15.2835 16.243 19.8355
43 1 12.1259 12.5604 14.7876
44 2 11.9543 13.0876 15.6252
64 1 15.0766 14.332 19.5337
65 2 14.3067 13.8033 19.9395
66 2 15.857 13.7287 19.4614
85 1 11.411 12.643 17.5065
86 2 11.8213 12.0629 18.1874
87 2 10.4426 12.8386 17.7717
92 2 13.9683 7.81549 12.4361
94 1 19.028 11.0547 11.5698
95 2 19.2369 11.1061 10.603
96 2 18.5276 11.9046 11.8141
113 2 9.06838 17.2144 10.3581
125 2 2.7113 9.352 19.7113
126 2 2.31682 8.31174 18.4712
139 1 15.5637 12.4451 12.7336
140 2 15.3299 11.6866 13.3399
141 2 14.8888 12.4196 12.0025
ITEM: TIMESTEP
500
ITEM: NUMBER OF ATOMS
150
ITEM: BOX BOUNDS pp pp pp
0.0000000000000000e+00 2.0000000000000000e+01
0.0000000000000000e+00 2.0000000000000000e+01
0.0000000000000000e+00 2.0000000000000000e+01
ITEM: ATOMS id type x y z
14 2 3.44205 5.88113 16.2118
34 1 8.81173 1.39659 3.84388
35 2 9.09168 0.523938 3.44065
36 2 8.53174 1.97269 3.06864
46 1 6.23246 6.46447 8.40587
47 2 6.029 6.85314 9.31024
48 2 6.06957 7.10123 7.64793
58 1 17.5575 19.7743 9.08085
59 2 18.1934 19.0466 9.34302
60 2 17.9551 0.661326 9.29448
82 1 9.51118 4.26384 6.53271
83 2 10.1182 4.02113 5.77046
84 2 10.128 4.44194 7.3163
97 1 1.71729 2.0624 7.75979
98 2 2.53159 2.58718 7.46654
99 2 1.47132 2.32744 8.6782
127 1 6.75249 2.60845 5.90187
128 2 7.32842 3.24806 6.4219
129 2 7.33686 2.09936 5.27339
133 1 8.89259 1.97766 1.32599
134 2 9.4828 1.24613 0.971161
135 2 9.00711 2.73291 0.682782
145 1 8.14802 4.69368 9.42628
146 2 8.92777 4.71529 8.79768
147 2 7.43536 5.32564 9.09198
2 2 16.8945 6.26807 0.648068
19 1 11.1037 8.11556 5.36156
20 2 10.1506 8.39482 5.39931
21 2 11.2452 7.50461 4.57
37 1 19.442 5.55393 7.71087
38 2 19.7494 4.60597 7.73872
39 2 0.234588 6.17977 7.69455
67 1 11.4043 5.98144 3.72251
68 2 10.8177 5.47375 3.08436
69 2 12.3643 5.7263 3.59544
71 2 15.9397 19.8161 7.31781
101 2 15.2452 7.3644 10.6443
142 1 11.0939 4.62703 8.57635
143 2 12.0322 4.914 8.36676
144 2 10.8505 4.97133 9.48447
25 1 2.99256 10.6747 2.3893
26 2 2.05918 10.3573 2.57062
27 2 3.10495 11.61 2.7374
61 1 5.0082 13.0668 19.391
62 2 5.31716 13.1651 18.4487
63 2 4.18802 12.4948 19.4563
73 1 4.97435 14.8379 1.39442
74 2 5.57246 14.7022 2.21018
76 1 6.63304 14.3604 4.09702
77 2 6.66224 13.36 4.17139
78 2 7.08521 14.7467 4.90919
103 1 7.2413 19.2086 7.09639
104 2 6.69634 18.8082 7.82513
105 2 6.96006 0.175921 6.9991
111 2 11.102 9.71977 3.79753
130 1 2.19213 15.2727 2.60253
131 2 1.87044 15.1546 1.65267
132 2 2.98354 15.8999 2.57909
4 1 19.2355 1.00222 19.3969
5 2 18.6702 0.563147 0.0955166
6 2 0.184857 1.06286 19.7211
7 1 19.219 17.7227 6.74443
8 2 19.7868 16.9654 6.44508
9 2 19.5474 18.6005 6.35917
49 1 14.7005 12.6494 2.43364
50 2 15.2598 11.8111 2.40537
51 2 14.7394 13.0369 3.36751
70 1 15.8988 19.1016 6.59991
72 2 16.8397 18.7839 6.45069
109 1 10.9091 10.4708 3.15627
110 2 11.7372 10.6917 2.66267
112 1 8.96043 18.3145 10.0314
114 2 8.49557 17.4324 9.90536
115 1 13.7517 18.6633 4.88383
116 2 12.9533 19.0698 5.33504
117 2 14.5474 18.632 5.52038
13 1 3.8464 5.86033 17.1221
15 2 4.8479 5.87106 16.9873
52 1 6.13668 4.45957 11.8843
53 2 6.36364 3.50939 12.0914
54 2 6.81228 4.82071 11.2385
55 1 3.41581 10.3749 15.9062
56 2 3.19389 9.81229 16.7182
57 2 2.6218 10.9424 15.7176
124 1 3.13988 8.33819 18.1916
136 1 5.56704 5.47847 14.4028
137 2 5.84108 4.98103 13.5696
138 2 5.41857 6.41054 14.0624
1 1 17.1547 5.40907 1.12995
3 2 17.7095 4.84757 0.487325
22 1 12.7075 9.94605 15.366
23 2 13.1987 9.10707 15.0833
24 2 11.8861 9.64949 15.8495
28 1 11.5659 0.779909 14.5851
29 2 11.0316 0.0687114 15.0257
30 2 11.9478 1.34515 15.3081
31 1 15.7981 8.02453 12.2458
32 2 16.2022 7.25498 12.7679
33 2 16.5015 8.73462 12.0745
88 1 16.4689 4.4226 14.9284
89 2 16.3159 4.23877 13.9458
90 2 16.9282 3.62419 15.3476
91 1 13.2776 7.74792 13.1162
93 2 12.5167 7.5561 12.4988
100 1 15.033 6.91685 9.77126
102 2 15.9099 6.74335 9.28974
106 1 17.3633 2.10025 16.6701
107 2 17.8857 2.37265 17.4878
108 2 17.7079 1.19618 16.3669
118 1 15.0169 4.84722 12.2558
119 2 14.4299 5.46097 11.7225
120 2 14.8722 3.89164 12.0036
121 1 13.1174 0.322076 1.0789
122 2 12.85 19.7446 1.85004
123 2 13.9231 -0.0425667 0.608538
10 1 0.622802 13.4513 13.2965
11 2 0.542746 14.411 13.5998
12 2 1.47589 13.4191 12.7816
16 1 5.55589 9.10797 14.5772
17 2 6.12553 8.95331 15.372
18 2 4.9663 9.89731 14.7487
45 2 13.2714 11.5749 14.4801
75 2 5.00695 14.0336 0.772331
79 1 19.7398 15.8273 14.1812
80 2 19.5265 15.8517 15.1735
81 2 18.8973 15.5478 13.6889
148 1 17.4425 14.6499 12.6595
149 2 17.5905 14.2138 11.7628
150 2 16.9153 13.9731 13.2052
40 1 15.2139 17.4543 19.5451
41 2 15.7973 16.6646 19.716
42 2 14.2709 17.1466 19.517
43 1 13.3239 12.485 14.0239
44 2 12.4582 12.9645 14.2051
64 1 15.108 14.0493 20.0064
65 2 14.7817 13.3127 0.619108
66 2 14.3007 14.5537 19.7332
85 1 11.4842 12.4327 17.8259
86 2 11.2037 11.4883 17.9188
87 2 11.2402 12.9442 18.6557
92 2 14.0808 8.02735 12.5736
94 1 18.5109 10.7351 11.6441
95 2 18.9564 10.231 12.3807
96 2 18.2723 11.642 12.002
113 2 9.1167 18.7712 9.14146
125 2 2.66893 8.07202 19.0327
126 2 3.4081 7.49755 17.6955
139 1 15.5687 12.3711 13.0784
140 2 14.6522 12.7377 13.3511
141 2 15.4486 11.3984 13.2923
ITEM: TIMESTEP
600
ITEM: NUMBER OF ATOMS
150
ITEM: BOX BOUNDS pp pp pp
0.0000000000000000e+00 2.0000000000000000e+01
0.0000000000000000e+00 2.0000000000000000e+01
0.0000000000000000e+00 2.0000000000000000e+01
ITEM: ATOMS id type x y z
14 2 4.82646 6.0899 15.2851
34 1 8.61307 0.886884 4.56533
35 2 8.34007 -0.0634286 4.72304
36 2 8.54749 1.0806 3.57907
46 1 6.53691 6.60374 8.68468
47 2 6.10335 7.42067 9.08093
48 2 5.88567 6.10022 8.11733
58 1 16.9446 19.5937 9.20306
59 2 17.2163 19.7856 10.1551
60 2 17.2991 18.69 8.93584
82 1 9.37541 3.4688 6.53043
83 2 9.38634 3.11104 5.5901
84 2 10.3144 3.69077 6.80835
97 1 1.91424 2.25649 8.07437
98 2 1.40377 1.52979 7.64678
99 2 2.80767 2.39609 7.6056
127 1 6.76057 3.09431 6.27446
128 2 7.7495 3.31076 6.42622
129 2 6.63805 2.10192 6.2251
133 1 9.2703 1.73145 0.930682
134 2 9.75694 2.57201 1.16647
135 2 9.95197 1.0046 1.04888
145 1 8.11912 4.47789 9.4173
146 2 8.33347 4.08801 8.5048
147 2 7.58496 5.32122 9.27398
2 2 17.7135 5.87544 0.906078
19 1 10.617 8.65748 5.26065
20 2 9.71543 8.63869 5.73591
21 2 11.3127 8.35733 5.90134
37 1 19.679 5.66777 7.73371
38 2 19.781 6.3869 7.0489
39 2 19.7797 4.77085 7.29599
67 1 11.5659 5.38031 3.43465
68 2 11.0608 6.22659 3.25839
69 2 10.9359 4.66876 3.7496
71 2 16.3891 19.2315 7.36145
101 2 15.0679 7.3554 10.534
142 1 10.8607 5.17288 8.8718
143 2 11.6724 5.50497 9.37904
144 2 10.201 4.78201 9.51051
25 1 3.04092 11.324 2.95363
26 2 3.35407 11.3302 3.91368
27 2 3.55275 11.9933 2.43267
61 1 5.74035 12.6504 19.4432
62 2 6.6919 12.7379 19.1021
63 2 5.2162 12.0703 18.8094
73 1 4.53482 14.2429 1.7915
74 2 5.32312 14.5309 2.34886
76 1 6.6255 14.4009 3.57074
77 2 7.49303 14.3148 4.06006
78 2 6.21092 15.2551 3.87181
103 1 7.42785 19.6906 7.10462
104 2 6.59272 19.777 7.65058
105 2 8.15031 20.1891 7.58272
111 2 11.0167 9.83162 4.10188
130 1 2.07444 15.1698 2.5708
131 2 1.59578 14.579 1.92564
132 2 2.89674 14.6868 2.84969
4 1 19.1358 1.27004 19.0688
5 2 18.7611 0.704006 19.8115
6 2 20.0039 1.65117 19.3571
7 1 19.355 18.0441 6.72829
8 2 0.354052 18.1406 6.75012
9 2 19.1115 17.1662 6.3168
49 1 14.3652 12.5798 2.2973
50 2 14.79 12.2834 3.15159
51 2 13.3911 12.4071 2.33804
70 1 16.0912 18.9793 6.44765
72 2 16.8111 19.2399 5.79286
109 1 11.2752 10.2988 3.21894
110 2 10.9532 9.7008 2.49749
112 1 8.4229 18.548 9.78084
114 2 9.06371 19.2569 10.0548
115 1 13.6664 18.8544 4.8912
116 2 13.3172 18.57 5.7798
117 2 14.6154 19.1425 4.9812