ITEM: TIMESTEP
0
ITEM: NUMBER OF ATOMS
3
ITEM: BOX BOUNDS pp pp pp
0.0000000000000000e+00 2.0000000000000000e+01
0.0000000000000000e+00 2.0000000000000000e+01
0.0000000000000000e+00 2.0000000000000000e+01
ITEM: ATOMS id type x y z vx vy vz
2 2 18.644 6.91356 0.330176 -0.016581 0.0187741 0.0176749
1 1 18.2711 6.31627 19.6201 0.00176479 -0.00182969 -0.000206207
3 2 17.724 6.85816 18.9821 -0.0116546 0.0104998 -0.0143757
ITEM: TIMESTEP
100
ITEM: NUMBER OF ATOMS
3
ITEM: BOX BOUNDS pp pp pp
0.0000000000000000e+00 2.0000000000000000e+01
0.0000000000000000e+00 2.0000000000000000e+01
0.0000000000000000e+00 2.0000000000000000e+01
ITEM: ATOMS id type x y z vx vy vz
2 2 17.4982 6.07048 0.140797 0.0192409 -0.00331778 -0.0176685
1 1 18.2876 6.43596 19.6346 -0.00202259 -0.000281716 -0.000643223
3 2 18.6062 5.7863 18.9396 0.0131193 0.00782507 0.0279597
ITEM: TIMESTEP
200
ITEM: NUMBER OF ATOMS
3
ITEM: BOX BOUNDS pp pp pp
0.0000000000000000e+00 2.0000000000000000e+01
0.0000000000000000e+00 2.0000000000000000e+01
0.0000000000000000e+00 2.0000000000000000e+01
ITEM: ATOMS id type x y z vx vy vz
2 2 18.1754 5.42243 19.6327 0.0124691 -0.030746 -0.00452691
1 1 18.309 6.40695 19.5961 0.00219232 0.00157375 0.00166763
3 2 17.5863 6.89856 0.0642425 -0.0475448 0.00556693 -0.0221542
ITEM: TIMESTEP
300
ITEM: NUMBER OF ATOMS
3
ITEM: BOX BOUNDS pp pp pp
0.0000000000000000e+00 2.0000000000000000e+01
0.0000000000000000e+00 2.0000000000000000e+01
0.0000000000000000e+00 2.0000000000000000e+01
ITEM: ATOMS id type x y z vx vy vz
2 2 17.6222 7.05849 19.9038 -0.0132767 -0.0332182 -0.0208016
1 1 18.2681 6.32499 19.656 0.00101181 0.00256781 -0.000541557
3 2 18.795 6.57371 18.8339 -0.0029116 -0.00786533 0.0294662
ITEM: TIMESTEP
400
ITEM: NUMBER OF ATOMS
3
ITEM: BOX BOUNDS pp pp pp
0.0000000000000000e+00 2.0000000000000000e+01
0.0000000000000000e+00 2.0000000000000000e+01
0.0000000000000000e+00 2.0000000000000000e+01
ITEM: ATOMS id type x y z vx vy vz
2 2 18.2705 5.57775 19.1069 0.0107212 -0.0214031 -0.00072941
1 1 18.2128 6.39453 19.6631 -0.00135462 0.00031947 -0.000599967
3 2 19.0301 6.94199 19.518 0.0109518 0.0162917 0.0103285
ITEM: TIMESTEP
500
ITEM: NUMBER OF ATOMS
3
ITEM: BOX BOUNDS pp pp pp
0.0000000000000000e+00 2.0000000000000000e+01
0.0000000000000000e+00 2.0000000000000000e+01
0.0000000000000000e+00 2.0000000000000000e+01
ITEM: ATOMS id type x y z vx vy vz
2 2 18.7819 5.68938 20.0693 -0.00999597 0.0162729 -0.00470493
1 1 18.2549 6.38293 19.5579 0.00149251 -7.27437e-06 0.0012495
3 2 17.846 7.0158 0.237512 -0.0138833 -0.0161565 -0.0152864
ITEM: TIMESTEP
600
ITEM: NUMBER OF ATOMS
3
ITEM: BOX BOUNDS pp pp pp
0.0000000000000000e+00 2.0000000000000000e+01
0.0000000000000000e+00 2.0000000000000000e+01
0.0000000000000000e+00 2.0000000000000000e+01
ITEM: ATOMS id type x y z vx vy vz
2 2 18.3771 6.19655 0.545381 -0.00624726 -0.00500693 0.0160967
1 1 18.246 6.43768 19.6017 -0.0020216 0.00137838 -0.000808867
3 2 18.3936 5.63268 19.0613 0.0385917 -0.0170464 -0.00315529
ITEM: TIMESTEP
700
ITEM: NUMBER OF ATOMS
3
ITEM: BOX BOUNDS pp pp pp
0.0000000000000000e+00 2.0000000000000000e+01
0.0000000000000000e+00 2.0000000000000000e+01
0.0000000000000000e+00 2.0000000000000000e+01
ITEM: ATOMS id type x y z vx vy vz
2 2 17.5738 6.0589 18.9872 0.0388968 -0.00277101 -0.0112326
1 1 18.2921 6.33956 19.6662 -0.00119375 0.00133543 0.00109856
3 2 18.4589 7.34029 19.5871 -0.0197975 -0.018595 -0.00634368
ITEM: TIMESTEP
800
ITEM: NUMBER OF ATOMS
3
ITEM: BOX BOUNDS pp pp pp
0.0000000000000000e+00 2.0000000000000000e+01
0.0000000000000000e+00 2.0000000000000000e+01
0.0000000000000000e+00 2.0000000000000000e+01
ITEM: ATOMS id type x y z vx vy vz
2 2 18.9819 6.71401 20.146 -0.00282839 0.0169444 0.0192703
1 1 18.2494 6.31887 19.6206 0.000536158 -0.00137026 -0.000817856
3 2 17.7346 7.01625 19.1582 -0.00574982 0.00497887 -0.00618505
ITEM: TIMESTEP
900
ITEM: NUMBER OF ATOMS
3
ITEM: BOX BOUNDS pp pp pp
0.0000000000000000e+00 2.0000000000000000e+01
0.0000000000000000e+00 2.0000000000000000e+01
0.0000000000000000e+00 2.0000000000000000e+01
ITEM: ATOMS id type x y z vx vy vz
2 2 17.8466 6.60666 0.481685 -0.0017827 -0.00794765 -0.00732139
1 1 18.3244 6.36745 19.6196 -0.00055841 0.00108788 0.000270629
3 2 17.6692 6.34627 18.8389 0.0107169 -0.00945778 0.00299149
ITEM: TIMESTEP
1000
ITEM: NUMBER OF ATOMS
3
ITEM: BOX BOUNDS pp pp pp
0.0000000000000000e+00 2.0000000000000000e+01
0.0000000000000000e+00 2.0000000000000000e+01
0.0000000000000000e+00 2.0000000000000000e+01
ITEM: ATOMS id type x y z vx vy vz
2 2 17.5692 6.04817 0.17189 -0.00616161 -0.00142513 0.001719
1 1 18.2747 6.44065 19.621 -0.000991832 9.32881e-05 -0.000391671
3 2 18.7427 5.73365 19.1263 0.0220303 -6.74272e-05 0.00454749
ITEM: TIMESTEP
1100
ITEM: NUMBER OF ATOMS
3
ITEM: BOX BOUNDS pp pp pp
0.0000000000000000e+00 2.0000000000000000e+01
0.0000000000000000e+00 2.0000000000000000e+01
0.0000000000000000e+00 2.0000000000000000e+01
ITEM: ATOMS id type x y z vx vy vz
2 2 17.7769 5.52531 19.7538 0.0101384 0.000340305 -0.00888937
1 1 18.2818 6.40175 19.5637 0.000858825 -0.000733276 0.000858316
3 2 18.4207 6.87879 0.461158 -0.0238791 0.0113917 -0.00484318
ITEM: TIMESTEP
1200
ITEM: NUMBER OF ATOMS
3
ITEM: BOX BOUNDS pp pp pp
0.0000000000000000e+00 2.0000000000000000e+01
0.0000000000000000e+00 2.0000000000000000e+01
0.0000000000000000e+00 2.0000000000000000e+01
ITEM: ATOMS id type x y z vx vy vz
2 2 19.1502 6.08164 19.648 0.011284 0.0267616 0.0135616
1 1 18.2258 6.38843 19.6763 -0.00159454 -0.0015981 -0.000271577
3 2 17.943 6.53558 18.765 0.0142277 -0.00119298 -0.00921655
ITEM: TIMESTEP
1300
ITEM: NUMBER OF ATOMS
3
ITEM: BOX BOUNDS pp pp pp
0.0000000000000000e+00 2.0000000000000000e+01
0.0000000000000000e+00 2.0000000000000000e+01
0.0000000000000000e+00 2.0000000000000000e+01
ITEM: ATOMS id type x y z vx vy vz
2 2 17.3073 6.55562 19.4143 0.000288647 -0.0205595 -0.0227978
1 1 18.2816 6.35241 19.682 6.65875e-05 0.00101213 0.00106646
3 2 18.8939 6.63799 18.907 -0.00135401 0.00436601 0.00573501
ITEM: TIMESTEP
1400
ITEM: NUMBER OF ATOMS
3
ITEM: BOX BOUNDS pp pp pp
0.0000000000000000e+00 2.0000000000000000e+01
0.0000000000000000e+00 2.0000000000000000e+01
0.0000000000000000e+00 2.0000000000000000e+01
ITEM: ATOMS id type x y z vx vy vz
2 2 18.5396 5.48138 19.5529 0.00905774 0.00268988 0.0102879
1 1 18.2054 6.39785 19.6045 1.84022e-05 3.6549e-06 -0.00121032
3 2 18.8797 6.98511 20.0089 -0.00935216 -0.00274835 0.0090765
ITEM: TIMESTEP
1500
ITEM: NUMBER OF ATOMS
3
ITEM: BOX BOUNDS pp pp pp
0.0000000000000000e+00 2.0000000000000000e+01
0.0000000000000000e+00 2.0000000000000000e+01
0.0000000000000000e+00 2.0000000000000000e+01
ITEM: ATOMS id type x y z vx vy vz
2 2 18.7175 5.58268 19.9628 0.00183849 -0.00089566 0.00324174
1 1 18.2559 6.39076 19.5611 0.000520818 4.19213e-05 -0.000292025
3 2 17.8947 6.9973 0.293509 -0.0101713 0.000224944 0.00143049
ITEM: TIMESTEP
1600
ITEM: NUMBER OF ATOMS
3
ITEM: BOX BOUNDS pp pp pp
0.0000000000000000e+00 2.0000000000000000e+01
0.0000000000000000e+00 2.0000000000000000e+01
0.0000000000000000e+00 2.0000000000000000e+01
ITEM: ATOMS id type x y z vx vy vz
2 2 18.7419 5.79912 0.20318 -0.000107231 0.00892414 -0.00446168
1 1 18.29 6.41267 19.5792 -0.000142487 -0.000206192 0.00108471
3 2 17.324 6.43029 -0.237249 0.00238693 -0.00562519 -0.012893
ITEM: TIMESTEP
1700
ITEM: NUMBER OF ATOMS
3
ITEM: BOX BOUNDS pp pp pp
0.0000000000000000e+00 2.0000000000000000e+01
0.0000000000000000e+00 2.0000000000000000e+01
0.0000000000000000e+00 2.0000000000000000e+01
ITEM: ATOMS id type x y z vx vy vz
2 2 18.5448 6.10706 0.52542 -0.000384858 0.00347399 0.0147228
1 1 18.2499 6.4427 19.6074 -0.00101023 0.0002546 -0.000173188
3 2 18.163 5.64186 18.9896 0.016548 -0.00754744 -0.0119519
ITEM: TIMESTEP
1800
ITEM: NUMBER OF ATOMS
3
ITEM: BOX BOUNDS pp pp pp
0.0000000000000000e+00 2.0000000000000000e+01
0.0000000000000000e+00 2.0000000000000000e+01
0.0000000000000000e+00 2.0000000000000000e+01
ITEM: ATOMS id type x y z vx vy vz
2 2 17.672 6.71341 0.28532 -0.00852851 -0.00359595 -0.0252025
1 1 18.2487 6.32745 19.5883 0.00201196 1.55009e-05 0.00130109
3 2 19.0557 6.87946 19.5363 -0.0236616 0.00334794 0.00438594
ITEM: TIMESTEP
1900
ITEM: NUMBER OF ATOMS
3
ITEM: BOX BOUNDS pp pp pp
0.0000000000000000e+00 2.0000000000000000e+01
0.0000000000000000e+00 2.0000000000000000e+01
0.0000000000000000e+00 2.0000000000000000e+01
ITEM: ATOMS id type x y z vx vy vz
2 2 18.8909 5.96374 19.0002 0.0403683 0.00797834 0.00311805
1 1 18.2304 6.34524 19.6719 -0.00204044 -0.00140714 0.0006044
3 2 18.1295 7.34454 19.4832 -0.00772248 0.014535 -0.0127881
ITEM: TIMESTEP
2000
ITEM: NUMBER OF ATOMS
3
ITEM: BOX BOUNDS pp pp pp
0.0000000000000000e+00 2.0000000000000000e+01
0.0000000000000000e+00 2.0000000000000000e+01
0.0000000000000000e+00 2.0000000000000000e+01
ITEM: ATOMS id type x y z vx vy vz
2 2 17.843 6.37988 0.473288 -0.00444874 -0.0125376 -0.026203
1 1 18.3198 6.40126 19.6164 -0.00128509 0.00173783 0.00070202
3 2 17.747 6.03218 18.8977 0.0250094 -0.0152667 0.0149711
ITEM: TIMESTEP
2100
ITEM: NUMBER OF ATOMS
3
ITEM: BOX BOUNDS pp pp pp
0.0000000000000000e+00 2.0000000000000000e+01
0.0000000000000000e+00 2.0000000000000000e+01
0.0000000000000000e+00 2.0000000000000000e+01
ITEM: ATOMS id type x y z vx vy vz
2 2 17.5445 5.85581 0.0251578 -0.00736897 -0.0112259 0.00290841
1 1 18.2499 6.42219 19.5785 -0.000359135 0.00031111 -0.00132308
3 2 19.1639 6.22127 19.9529 0.0131149 0.00624833 0.01826
ITEM: TIMESTEP
2200
ITEM: NUMBER OF ATOMS
3
ITEM: BOX BOUNDS pp pp pp
0.0000000000000000e+00 2.0000000000000000e+01
0.0000000000000000e+00 2.0000000000000000e+01
0.0000000000000000e+00 2.0000000000000000e+01
ITEM: ATOMS id type x y z vx vy vz
2 2 17.7163 5.59283 19.7416 0.0110925 0.00847341 -0.00846826
1 1 18.2919 6.39136 19.57 -7.86952e-05 -0.00040891 0.00148401
3 2 18.319 6.97757 0.371523 -0.00983344 -0.0019311 -0.0152751
ITEM: TIMESTEP
2300
ITEM: NUMBER OF ATOMS
3
ITEM: BOX BOUNDS pp pp pp
0.0000000000000000e+00 2.0000000000000000e+01
0.0000000000000000e+00 2.0000000000000000e+01
0.0000000000000000e+00 2.0000000000000000e+01
ITEM: ATOMS id type x y z vx vy vz
2 2 18.2194 5.45829 19.3378 0.0150099 -0.0202605 -0.00972533
1 1 18.3135 6.40456 19.6533 -0.000212436 0.000769491 0.00158094
3 2 17.471 6.90093 19.4428 -0.0116111 0.00794911 -0.0155687
ITEM: TIMESTEP
2400
ITEM: NUMBER OF ATOMS
3
ITEM: BOX BOUNDS pp pp pp
0.0000000000000000e+00 2.0000000000000000e+01
0.0000000000000000e+00 2.0000000000000000e+01
0.0000000000000000e+00 2.0000000000000000e+01
ITEM: ATOMS id type x y z vx vy vz
2 2 19.0081 6.84853 20.0125 -0.0323524 0.007471 0.00644179
1 1 18.2244 6.3368 19.658 0.00144948 0.000217893 -0.00169927
3 2 18.1082 6.59472 18.6935 0.00916157 -0.0109572 0.0207456
ITEM: TIMESTEP
2500
ITEM: NUMBER OF ATOMS
3
ITEM: BOX BOUNDS pp pp pp
0.0000000000000000e+00 2.0000000000000000e+01
0.0000000000000000e+00 2.0000000000000000e+01
0.0000000000000000e+00 2.0000000000000000e+01
ITEM: ATOMS id type x y z vx vy vz
2 2 17.4454 6.04879 19.2556 -0.00125119 -0.030365 -0.0223889
1 1 18.2698 6.38989 19.688 -0.00121341 0.0017085 0.00209804
3 2 18.9434 6.54506 18.9709 0.020665 0.00303003 -0.0111785
ITEM: TIMESTEP
2600
ITEM: NUMBER OF ATOMS
3
ITEM: BOX BOUNDS pp pp pp
0.0000000000000000e+00 2.0000000000000000e+01
0.0000000000000000e+00 2.0000000000000000e+01
0.0000000000000000e+00 2.0000000000000000e+01
ITEM: ATOMS id type x y z vx vy vz
2 2 18.6341 5.52385 19.9022 -0.00665148 0.028198 0.00437336
1 1 18.2633 6.39943 19.5625 0.00154122 -0.000305346 0.000875747
3 2 17.859 6.91741 0.330724 -0.0180071 -0.0233126 -0.0183848
ITEM: TIMESTEP
2700
ITEM: NUMBER OF ATOMS
3
ITEM: BOX BOUNDS pp pp pp
0.0000000000000000e+00 2.0000000000000000e+01
0.0000000000000000e+00 2.0000000000000000e+01
0.0000000000000000e+00 2.0000000000000000e+01
ITEM: ATOMS id type x y z vx vy vz
2 2 18.605 6.17149 0.493159 0.00485543 -9.97134e-05 0.0171345
1 1 18.2284 6.43118 19.6136 -0.00223917 0.000607576 -0.000442529
3 2 18.4469 5.76172 18.9233 0.0309699 -0.00962113 -0.0100543
ITEM: TIMESTEP
2800
ITEM: NUMBER OF ATOMS
3
ITEM: BOX BOUNDS pp pp pp
0.0000000000000000e+00 2.0000000000000000e+01
0.0000000000000000e+00 2.0000000000000000e+01
0.0000000000000000e+00 2.0000000000000000e+01
ITEM: ATOMS id type x y z vx vy vz
2 2 17.5362 6.82029 0.117045 -0.00345129 -0.0106361 -0.020104
1 1 18.2587 6.31773 19.6085 0.00122867 0.0010183 0.000974216
3 2 19.0316 6.92805 19.3813 -0.0162067 -0.00565617 0.00451711
ITEM: TIMESTEP
2900
ITEM: NUMBER OF ATOMS
3
ITEM: BOX BOUNDS pp pp pp
0.0000000000000000e+00 2.0000000000000000e+01
0.0000000000000000e+00 2.0000000000000000e+01
0.0000000000000000e+00 2.0000000000000000e+01
ITEM: ATOMS id type x y z vx vy vz
2 2 17.8609 6.01798 18.8444 0.00898977 -0.0172435 -0.0154438
1 1 18.2669 6.34618 19.6771 -0.000533379 0.000300415 0.000646435
3 2 18.5756 7.27518 19.5565 -0.000456036 0.012437 0.00510125
ITEM: TIMESTEP
3000
ITEM: NUMBER OF ATOMS
3
ITEM: BOX BOUNDS pp pp pp
0.0000000000000000e+00 2.0000000000000000e+01
0.0000000000000000e+00 2.0000000000000000e+01
0.0000000000000000e+00 2.0000000000000000e+01
ITEM: ATOMS id type x y z vx vy vz
2 2 19.1533 6.4426 20.0288 -0.0250785 0.00521623 0.0182383
1 1 18.2321 6.32062 19.6092 0.00222561 0.000819985 -0.000967819
3 2 17.8389 7.25958 19.4585 -0.01053 -0.0183355 -0.00275379
ITEM: TIMESTEP
3100
ITEM: NUMBER OF ATOMS
3
ITEM: BOX BOUNDS pp pp pp
0.0000000000000000e+00 2.0000000000000000e+01
0.0000000000000000e+00 2.0000000000000000e+01
0.0000000000000000e+00 2.0000000000000000e+01
ITEM: ATOMS id type x y z vx vy vz
2 2 17.6218 6.03218 0.209472 -0.011826 -0.0147077 -0.00344689
1 1 18.2516 6.43214 19.589 -0.00120016 8.66835e-05 -0.00175592
3 2 19.0591 5.8858 19.5998 0.0310279 0.0133209 0.0315406
ITEM: TIMESTEP
3200
ITEM: NUMBER OF ATOMS
3
ITEM: BOX BOUNDS pp pp pp
0.0000000000000000e+00 2.0000000000000000e+01
0.0000000000000000e+00 2.0000000000000000e+01
0.0000000000000000e+00 2.0000000000000000e+01
ITEM: ATOMS id type x y z vx vy vz
2 2 18.214 5.49061 19.1909 0.0167707 0.0141242 -0.00296427
1 1 18.3096 6.39687 19.6675 -0.00149027 4.09133e-05 0.00117104
3 2 17.5388 6.99158 -0.637417 0.00707274 -0.0147787 -0.0157717
ITEM: TIMESTEP
3300
ITEM: NUMBER OF ATOMS
3
ITEM: BOX BOUNDS pp pp pp
0.0000000000000000e+00 2.0000000000000000e+01
0.0000000000000000e+00 2.0000000000000000e+01
0.0000000000000000e+00 2.0000000000000000e+01
ITEM: ATOMS id type x y z vx vy vz
2 2 18.967 6.87256 0.0172381 -0.00850647 0.0219095 0.0070921
1 1 18.2319 6.33426 19.6546 -8.91838e-05 -0.00152692 -1.9905e-05
3 2 18.0289 6.61144 18.7431 0.00993335 0.00252034 -0.00677364
ITEM: TIMESTEP
3400
ITEM: NUMBER OF ATOMS
3
ITEM: BOX BOUNDS pp pp pp
0.0000000000000000e+00 2.0000000000000000e+01
0.0000000000000000e+00 2.0000000000000000e+01
0.0000000000000000e+00 2.0000000000000000e+01
ITEM: ATOMS id type x y z vx vy vz
2 2 17.2747 6.43754 19.5659 0.00160926 -0.0204173 -0.0130489
1 1 18.2911 6.37046 19.6806 -0.000283925 0.00140654 0.000206982
3 2 18.7742 6.4672 18.7788 0.00293337 -0.00208651 0.00973729
ITEM: TIMESTEP
3500
ITEM: NUMBER OF ATOMS
3
ITEM: BOX BOUNDS pp pp pp
0.0000000000000000e+00 2.0000000000000000e+01
0.0000000000000000e+00 2.0000000000000000e+01
0.0000000000000000e+00 2.0000000000000000e+01
ITEM: ATOMS id type x y z vx vy vz
2 2 18.3521 5.45029 19.67 0.00466967 -0.00270408 0.00237601
1 1 18.229 6.40566 19.5795 0.00138772 -0.000557243 -0.000851922
3 2 18.6909 6.89123 0.291594 -0.0268724 0.0116196 0.0112542
ITEM: TIMESTEP
3600
ITEM: NUMBER OF ATOMS
3
ITEM: BOX BOUNDS pp pp pp
0.0000000000000000e+00 2.0000000000000000e+01
0.0000000000000000e+00 2.0000000000000000e+01
0.0000000000000000e+00 2.0000000000000000e+01
ITEM: ATOMS id type x y z vx vy vz
2 2 18.757 5.92501 0.353073 0.000114643 0.0146746 0.00733933
1 1 18.2582 6.44574 19.6195 -0.00143281 -0.000658658 0.000664315
3 2 17.8188 5.77538 18.969 0.0228094 -0.00413647 -0.017968
ITEM: TIMESTEP
3700
ITEM: NUMBER OF ATOMS
3
ITEM: BOX BOUNDS pp pp pp
0.0000000000000000e+00 2.0000000000000000e+01
0.0000000000000000e+00 2.0000000000000000e+01
0.0000000000000000e+00 2.0000000000000000e+01
ITEM: ATOMS id type x y z vx vy vz
2 2 17.5101 6.85275 -0.064723 -0.0125325 -0.0146314 -0.0226668
1 1 18.2648 6.31609 19.6233 0.000840488 0.000653255 0.00123048
3 2 18.96 6.92195 19.325 -0.00091479 0.00417975 0.00297984
ITEM: TIMESTEP
3800
ITEM: NUMBER OF ATOMS
3
ITEM: BOX BOUNDS pp pp pp
0.0000000000000000e+00 2.0000000000000000e+01
0.0000000000000000e+00 2.0000000000000000e+01
0.0000000000000000e+00 2.0000000000000000e+01
ITEM: ATOMS id type x y z vx vy vz
2 2 18.3149 5.8821 18.7753 0.0165413 -0.00327836 -0.00369915
1 1 18.2428 6.35156 19.6818 -0.000774876 -6.27676e-05 0.000361753
3 2 18.506 7.32505 19.5491 -0.00414373 0.0042826 -0.00208868
ITEM: TIMESTEP
3900
ITEM: NUMBER OF ATOMS
3
ITEM: BOX BOUNDS pp pp pp
0.0000000000000000e+00 2.0000000000000000e+01
0.0000000000000000e+00 2.0000000000000000e+01
0.0000000000000000e+00 2.0000000000000000e+01
ITEM: ATOMS id type x y z vx vy vz
2 2 19.184 6.20537 19.7442 -0.00482559 0.0123009 0.0127368
1 1 18.2189 6.33328 19.6202 0.000201694 -9.44102e-05 -0.000877224
3 2 18.0199 7.29423 19.5658 0.00159861 -0.0107903 0.0012983
ITEM: TIMESTEP
4000
ITEM: NUMBER OF ATOMS
3
ITEM: BOX BOUNDS pp pp pp
0.0000000000000000e+00 2.0000000000000000e+01
0.0000000000000000e+00 2.0000000000000000e+01
0.0000000000000000e+00 2.0000000000000000e+01
ITEM: ATOMS id type x y z vx vy vz
2 2 18.2549 6.38069 0.608335 -0.0156722 -0.00462162 0.0126661
1 1 18.3168 6.38261 19.5911 0.00140934 0.00173654 -6.46369e-05
3 2 17.3829 6.32966 19.1673 -0.00687643 -0.023162 -0.0116319
ITEM: TIMESTEP
4100
ITEM: NUMBER OF ATOMS
3
ITEM: BOX BOUNDS pp pp pp
0.0000000000000000e+00 2.0000000000000000e+01
0.0000000000000000e+00 2.0000000000000000e+01
0.0000000000000000e+00 2.0000000000000000e+01
ITEM: ATOMS id type x y z vx vy vz
2 2 17.5538 5.86741 -0.0247775 0.0142322 0.00500917 -0.0204152
1 1 18.2648 6.39114 19.5645 0.0011184 -0.00179167 0.0011169
3 2 18.9161 6.70651 0.225925 -0.032126 0.0236565 0.00254551
ITEM: TIMESTEP
4200
ITEM: NUMBER OF ATOMS
3
ITEM: BOX BOUNDS pp pp pp
0.0000000000000000e+00 2.0000000000000000e+01
0.0000000000000000e+00 2.0000000000000000e+01
0.0000000000000000e+00 2.0000000000000000e+01
ITEM: ATOMS id type x y z vx vy vz
2 2 19.113 5.99563 19.3014 0.0279269 0.0123697 0.0151608
1 1 18.2411 6.37137 19.685 -0.00111649 -0.0011741 6.99126e-05
3 2 17.7354 6.89464 18.973 -0.0100638 0.00641518 -0.0162794
ITEM: TIMESTEP
4300
ITEM: NUMBER OF ATOMS
3
ITEM: BOX BOUNDS pp pp pp
0.0000000000000000e+00 2.0000000000000000e+01
0.0000000000000000e+00 2.0000000000000000e+01
0.0000000000000000e+00 2.0000000000000000e+01
ITEM: ATOMS id type x y z vx vy vz
2 2 17.7416 7.05228 0.0552055 -0.0109379 -0.0228978 -0.00849773
1 1 18.2871 6.33022 19.6554 0.000102993 0.00205293 -0.000504266
3 2 18.3705 6.49627 18.6916 0.00929004 -0.00994779 0.0165657
ITEM: TIMESTEP
4400
ITEM: NUMBER OF ATOMS
3
ITEM: BOX BOUNDS pp pp pp
0.0000000000000000e+00 2.0000000000000000e+01
0.0000000000000000e+00 2.0000000000000000e+01
0.0000000000000000e+00 2.0000000000000000e+01
ITEM: ATOMS id type x y z vx vy vz
2 2 17.7758 5.55611 19.4348 0.00183546 -0.0251587 -0.00153786
1 1 18.2338 6.43223 19.6543 -0.00134578 0.00133632 -0.000687727
3 2 19.1891 6.36038 19.3308 0.0196961 0.00377836 0.0125411
ITEM: TIMESTEP
4500
ITEM: NUMBER OF ATOMS
3
ITEM: BOX BOUNDS pp pp pp
0.0000000000000000e+00 2.0000000000000000e+01
0.0000000000000000e+00 2.0000000000000000e+01
0.0000000000000000e+00 2.0000000000000000e+01
ITEM: ATOMS id type x y z vx vy vz
2 2 18.6949 5.638 20.0193 -0.00995525 0.0291475 0.00194371
1 1 18.2938 6.42591 19.593 -0.000915327 0.000210191 0.00228582
3 2 17.31 6.37954 19.7269 0.0245999 -0.0325104 -0.0385154
ITEM: TIMESTEP
4600
ITEM: NUMBER OF ATOMS
3
ITEM: BOX BOUNDS pp pp pp
0.0000000000000000e+00 2.0000000000000000e+01
0.0000000000000000e+00 2.0000000000000000e+01
0.0000000000000000e+00 2.0000000000000000e+01
ITEM: ATOMS id type x y z vx vy vz
2 2 17.3416 6.67477 19.5034 -0.018285 -0.00669267 -0.0360281
1 1 18.2763 6.32149 19.6508 0.000788878 -0.00143924 0.00245636
3 2 18.9436 7.01344 19.317 0.00566343 0.0297197 -0.00327218
ITEM: TIMESTEP
4700
ITEM: NUMBER OF ATOMS
3
ITEM: BOX BOUNDS pp pp pp
0.0000000000000000e+00 2.0000000000000000e+01
0.0000000000000000e+00 2.0000000000000000e+01
0.0000000000000000e+00 2.0000000000000000e+01
ITEM: ATOMS id type x y z vx vy vz
2 2 19.1169 5.98402 19.4394 -0.0104214 0.0196651 0.0225455
1 1 18.2109 6.34445 19.636 0.000847915 -0.000164499 -0.00146969
3 2 18.2149 7.33697 19.6186 -0.00314472 -0.0170332 0.000968619
ITEM: TIMESTEP
4800
ITEM: NUMBER OF ATOMS
3
ITEM: BOX BOUNDS pp pp pp
0.0000000000000000e+00 2.0000000000000000e+01
0.0000000000000000e+00 2.0000000000000000e+01
0.0000000000000000e+00 2.0000000000000000e+01
ITEM: ATOMS id type x y z vx vy vz
2 2 18.443 6.33869 0.579315 -0.00563183 -0.00289472 0.0207017
1 1 18.3073 6.37298 19.5814 0.00150432 0.00113947 -0.000383916
3 2 17.3466 6.52572 19.3519 -0.0184363 -0.0153361 -0.0145592
ITEM: TIMESTEP
4900
ITEM: NUMBER OF ATOMS
3
ITEM: BOX BOUNDS pp pp pp
0.0000000000000000e+00 2.0000000000000000e+01
0.0000000000000000e+00 2.0000000000000000e+01
0.0000000000000000e+00 2.0000000000000000e+01
ITEM: ATOMS id type x y z vx vy vz
2 2 17.6504 6.12188 0.328431 0.00124816 0.00593271 -0.0242062
1 1 18.2478 6.42636 19.5834 0.00033796 -0.00275291 0.000493965
3 2 19.0909 5.88851 19.5716 -0.00665533 0.0381123 0.0163031
ITEM: TIMESTEP
5000
ITEM: NUMBER OF ATOMS
3
ITEM: BOX BOUNDS pp pp pp
0.0000000000000000e+00 2.0000000000000000e+01
0.0000000000000000e+00 2.0000000000000000e+01
0.0000000000000000e+00 2.0000000000000000e+01
ITEM: ATOMS id type x y z vx vy vz
2 2 18.7902 5.7935 19.0761 0.0581253 -0.00106782 0.00109102
1 1 18.2619 6.37603 19.6887 -0.00268774 -0.000719948 0.00121924
3 2 17.7259 7.02221 19.1381 -0.0151231 0.0125866 -0.0205982
ITEM: TIMESTEP
5100
ITEM: NUMBER OF ATOMS
3
ITEM: BOX BOUNDS pp pp pp
0.0000000000000000e+00 2.0000000000000000e+01
0.0000000000000000e+00 2.0000000000000000e+01
0.0000000000000000e+00 2.0000000000000000e+01
ITEM: ATOMS id type x y z vx vy vz
2 2 17.4571 6.80732 -0.0662447 0.00598034 -0.0230868 -0.0110191
1 1 18.3034 6.34919 19.6646 -0.000832199 0.00182351 -0.000441503
3 2 18.3956 6.43773 18.6665 0.00733435 -0.00608818 0.0180829
ITEM: TIMESTEP
5200
ITEM: NUMBER OF ATOMS
3
ITEM: BOX BOUNDS pp pp pp
0.0000000000000000e+00 2.0000000000000000e+01
0.0000000000000000e+00 2.0000000000000000e+01
0.0000000000000000e+00 2.0000000000000000e+01
ITEM: ATOMS id type x y z vx vy vz
2 2 17.6614 5.64023 19.5221 0.00204044 -0.0188171 -0.00271062
1 1 18.2449 6.43437 19.6546 -0.00144111 0.00143111 -6.84824e-05
3 2 19.1262 6.24207 19.2388 0.0210165 -0.00407982 0.00380629
ITEM: TIMESTEP
5300
ITEM: NUMBER OF ATOMS
3
ITEM: BOX BOUNDS pp pp pp
0.0000000000000000e+00 2.0000000000000000e+01
0.0000000000000000e+00 2.0000000000000000e+01
0.0000000000000000e+00 2.0000000000000000e+01
ITEM: ATOMS id type x y z vx vy vz
2 2 18.3145 5.40645 19.7196 0.00665676 0.0215366 0.00573699
1 1 18.2562 6.40844 19.5664 0.0011233 -0.000559659 0.000441943
3 2 18.2928 6.89069 0.451851 -0.0246289 -0.0125824 -0.0128078
ITEM: TIMESTEP
5400
ITEM: NUMBER OF ATOMS
3
ITEM: BOX BOUNDS pp pp pp
0.0000000000000000e+00 2.0000000000000000e+01
0.0000000000000000e+00 2.0000000000000000e+01
0.0000000000000000e+00 2.0000000000000000e+01
ITEM: ATOMS id type x y z vx vy vz
2 2 18.8683 6.08827 0.296082 0.0182081 0.0077946 0.0198171
1 1 18.2215 6.42549 19.6345 -0.0034741 -0.000250465 -0.000100147
3 2 18.2947 5.93602 18.7851 0.0373753 -0.00378731 -0.0182149
ITEM: TIMESTEP
5500
ITEM: NUMBER OF ATOMS
3
ITEM: BOX BOUNDS pp pp pp
0.0000000000000000e+00 2.0000000000000000e+01
0.0000000000000000e+00 2.0000000000000000e+01
0.0000000000000000e+00 2.0000000000000000e+01
ITEM: ATOMS id type x y z vx vy vz
2 2 17.4944 6.25158 19.0233 0.0289651 -0.0196822 -0.00667335
1 1 18.27 6.34198 19.6746 -0.000657725 0.00189923 -0.000367192
3 2 18.8914 7.10886 19.4175 -0.0184419 -0.0107043 0.0125482
ITEM: TIMESTEP
5600
ITEM: NUMBER OF ATOMS
3
ITEM: BOX BOUNDS pp pp pp
0.0000000000000000e+00 2.0000000000000000e+01
0.0000000000000000e+00 2.0000000000000000e+01
0.0000000000000000e+00 2.0000000000000000e+01
ITEM: ATOMS id type x y z vx vy vz
2 2 19.1255 6.08934 19.8833 0.00886972 -0.00284578 0.0181677
1 1 18.2191 6.33971 19.601 0.000534637 -0.000483034 -0.00126581
3 2 18.0754 7.30736 19.734 -0.0174236 0.010574 0.00208461
ITEM: TIMESTEP
5700
ITEM: NUMBER OF ATOMS
3
ITEM: BOX BOUNDS pp pp pp
0.0000000000000000e+00 2.0000000000000000e+01
0.0000000000000000e+00 2.0000000000000000e+01
0.0000000000000000e+00 2.0000000000000000e+01
ITEM: ATOMS id type x y z vx vy vz
2 2 18.5521 6.26804 0.549052 -0.00335533 8.15554e-05 -0.00882972
1 1 18.3019 6.37054 19.5729 -3.43032e-05 0.000596681 0.00102095
3 2 17.3242 6.63544 19.5181 0.00390416 -0.00962809 -0.00750495
ITEM: TIMESTEP
5800
ITEM: NUMBER OF ATOMS
3
ITEM: BOX BOUNDS pp pp pp
0.0000000000000000e+00 2.0000000000000000e+01
0.0000000000000000e+00 2.0000000000000000e+01
0.0000000000000000e+00 2.0000000000000000e+01
ITEM: ATOMS id type x y z vx vy vz
2 2 18.3057 6.25685 0.57017 -0.00227 -0.000796719 0.00304824
1 1 18.3086 6.4071 19.5906 0.000234963 0.000380853 -2.67925e-05
3 2 17.4629 6.06172 19.2142 -0.00148927 -0.0052967 -0.00261957
ITEM: TIMESTEP
5900
ITEM: NUMBER OF ATOMS
3
ITEM: BOX BOUNDS pp pp pp
0.0000000000000000e+00 2.0000000000000000e+01
0.0000000000000000e+00 2.0000000000000000e+01
0.0000000000000000e+00 2.0000000000000000e+01
ITEM: ATOMS id type x y z vx vy vz
2 2 18.1717 6.2578 0.588564 -0.00310087 -0.00189088 -0.00195713
1 1 18.2991 6.42591 19.5982 -0.000104617 0.000222866 -8.06448e-05
3 2 17.7493 5.75975 19.0742 0.00477469 -0.00167484 0.0032474
ITEM: TIMESTEP
6000
ITEM: NUMBER OF ATOMS
3
ITEM: BOX BOUNDS pp pp pp
0.0000000000000000e+00 2.0000000000000000e+01
0.0000000000000000e+00 2.0000000000000000e+01
0.0000000000000000e+00 2.0000000000000000e+01
ITEM: ATOMS id type x y z vx vy vz
2 2 17.9845 6.266 0.526065 -0.00290367 -0.00261311 0.00018904
1 1 18.2743 6.436 19.6007 -0.000243169 0.000186583 -0.000275759
3 2 18.3322 5.59015 19.0959 0.00679422 -0.00037211 0.00422294
ITEM: TIMESTEP
6100
ITEM: NUMBER OF ATOMS
3
ITEM: BOX BOUNDS pp pp pp
0.0000000000000000e+00 2.0000000000000000e+01
0.0000000000000000e+00 2.0000000000000000e+01
0.0000000000000000e+00 2.0000000000000000e+01
ITEM: ATOMS id type x y z vx vy vz
2 2 17.6879 6.17609 0.393859 -0.00579548 -0.000513259 -0.00124607
1 1 18.2441 6.42324 19.58 -0.000199549 -0.000445939 -0.000304411
3 2 19.1122 5.88427 19.5599 0.00898814 0.00764801 0.00611646
ITEM: TIMESTEP
6200
ITEM: NUMBER OF ATOMS
3
ITEM: BOX BOUNDS pp pp pp
0.0000000000000000e+00 2.0000000000000000e+01
0.0000000000000000e+00 2.0000000000000000e+01
0.0000000000000000e+00 2.0000000000000000e+01
ITEM: ATOMS id type x y z vx vy vz
2 2 17.445 5.95394 -0.178816 0.00907408 -0.00529805 -0.0206776
1 1 18.3013 6.35718 19.5812 0.00022978 -0.000142087 0.00207944
3 2 18.4408 7.16327 0.112833 -0.0127504 0.00757135 -0.0125923
ITEM: TIMESTEP
6300
ITEM: NUMBER OF ATOMS
3
ITEM: BOX BOUNDS pp pp pp
0.0000000000000000e+00 2.0000000000000000e+01
0.0000000000000000e+00 2.0000000000000000e+01
0.0000000000000000e+00 2.0000000000000000e+01
ITEM: ATOMS id type x y z vx vy vz
2 2 19.2437 6.32857 19.4766 0.0153886 0.022 0.0251664
1 1 18.2293 6.34615 19.6734 -0.000457934 -0.00128857 -0.000613412
3 2 17.7937 6.96515 18.9824 -0.00806189 -0.00138358 -0.0153522
ITEM: TIMESTEP
6400
ITEM: NUMBER OF ATOMS
3
ITEM: BOX BOUNDS pp pp pp
0.0000000000000000e+00 2.0000000000000000e+01
0.0000000000000000e+00 2.0000000000000000e+01
0.0000000000000000e+00 2.0000000000000000e+01
ITEM: ATOMS id type x y z vx vy vz
2 2 17.3874 6.04438 19.7106 0.0158889 -0.0178712 -0.00732847
1 1 18.2892 6.41781 19.6677 -0.00177832 0.00121446 -0.00115964
3 2 18.6918 6.10288 18.8407 0.0125632 -0.00155951 0.0258819
ITEM: TIMESTEP
6500
ITEM: NUMBER OF ATOMS
3
ITEM: BOX BOUNDS pp pp pp
0.0000000000000000e+00 2.0000000000000000e+01
0.0000000000000000e+00 2.0000000000000000e+01
0.0000000000000000e+00 2.0000000000000000e+01
ITEM: ATOMS id type x y z vx vy vz
2 2 18.1414 5.41069 19.7111 0.00557287 -0.0130169 0.0079687
1 1 18.2586 6.41062 19.5658 0.000755592 0.000630857 -0.00122641
3 2 18.4266 6.8516 0.470202 -0.0176619 0.00292352 0.0116531
ITEM: TIMESTEP
6600
ITEM: NUMBER OF ATOMS
3
ITEM: BOX BOUNDS pp pp pp
0.0000000000000000e+00 2.0000000000000000e+01
0.0000000000000000e+00 2.0000000000000000e+01
0.0000000000000000e+00 2.0000000000000000e+01
ITEM: ATOMS id type x y z vx vy vz
2 2 18.6164 5.53816 19.8864 -0.00471468 0.0122467 -0.00107421
1 1 18.2988 6.42692 19.6075 -0.000389148 2.11709e-06 0.000780037
3 2 17.3099 6.46325 -0.373338 0.0109408 -0.0122806 -0.0114059
ITEM: TIMESTEP
6700
ITEM: NUMBER OF ATOMS
3
ITEM: BOX BOUNDS pp pp pp
0.0000000000000000e+00 2.0000000000000000e+01
0.0000000000000000e+00 2.0000000000000000e+01
0.0000000000000000e+00 2.0000000000000000e+01
ITEM: ATOMS id type x y z vx vy vz
2 2 18.9972 6.06127 0.185031 0.013272 0.00987456 0.0139155
1 1 18.2172 6.4192 19.647 -0.0018853 -0.000522729 0.000446657
3 2 18.2334 6.06369 18.6961 0.0168916 -0.00151121 -0.0210617
ITEM: TIMESTEP
6800
ITEM: NUMBER OF ATOMS
3
ITEM: BOX BOUNDS pp pp pp
0.0000000000000000e+00 2.0000000000000000e+01
0.0000000000000000e+00 2.0000000000000000e+01
0.0000000000000000e+00 2.0000000000000000e+01
ITEM: ATOMS id type x y z vx vy vz
2 2 17.4826 6.29061 19.0753 0.0366862 -0.0335597 -0.00374781
1 1 18.268 6.34795 19.677 -0.00133348 0.00252685 -0.00122868
3 2 18.9362 6.97424 19.3271 -0.0153513 -0.00686842 0.0234059
ITEM: TIMESTEP
6900
ITEM: NUMBER OF ATOMS
3
ITEM: BOX BOUNDS pp pp pp
0.0000000000000000e+00 2.0000000000000000e+01
0.0000000000000000e+00 2.0000000000000000e+01
0.0000000000000000e+00 2.0000000000000000e+01
ITEM: ATOMS id type x y z vx vy vz
2 2 18.7293 6.07613 0.429017 0.00612887 -0.00649851 0.0221033
1 1 18.2852 6.37036 19.564 0.00159253 0.00110423 -0.000445748
3 2 17.4133 6.83017 19.7812 -0.0316084 -0.0111686 -0.0149716
ITEM: TIMESTEP
7000
ITEM: NUMBER OF ATOMS