ITEM: TIMESTEP
0
ITEM: NUMBER OF ATOMS
100
ITEM: BOX BOUNDS ff ff pp
0.0000000000000000e+00 1.5000000000000000e+01
0.0000000000000000e+00 1.5000000000000000e+01
0.0000000000000000e+00 1.0000000000000000e+01
ITEM: ATOMS id type x y z vx vy vz
70 1 9.3189 1.83614 1.04618 1.30849 0.640017 1.73612
78 1 7.10714 8.64595 1.35085 -0.9454 -1.08557 1.12075
71 1 4.05813 10.0421 1.20585 0.695142 0.830053 -2.11076
30 1 4.58418 11.2789 1.27066 -1.47614 -0.66483 -0.0226022
86 1 6.25576 12.6186 1.31291 -0.144829 -1.23174 1.32028
12 1 7.00156 2.25935 2.27959 0.281588 -0.69028 -1.96884
13 1 8.20124 2.26863 2.34699 0.727756 -0.326245 1.85954
93 1 9.57106 1.77825 2.43053 0.627399 -0.840953 -0.800528
69 1 6.19567 3.6647 1.45712 -0.163116 -2.00537 -1.3628
91 1 9.71734 3.27958 2.30314 1.95848 -0.922084 -1.8058
28 1 9.74608 5.38889 2.38787 0.833698 0.398486 0.214697
96 1 6.56092 6.35645 1.55099 0.15721 -0.433317 -0.826505
9 1 2.6402 7.90806 1.51384 -1.42701 -1.09451 -0.0798149
77 1 7.74213 7.97073 1.75476 -1.08375 -1.53685 -0.0179101
97 1 13.3739 8.34203 2.07236 0.602059 -0.923069 -1.33574
26 1 2.02232 10.0831 1.43738 -1.61349 -1.35361 1.27833
32 1 5.44809 10.0855 2.43995 -0.533658 -0.225665 1.86427
52 1 6.38551 9.20528 2.43326 -0.0199899 1.98824 0.0626748
59 1 10.349 11.6387 2.78694 0.797785 1.45285 -0.982041
64 1 2.21196 12.3913 2.81376 -0.868811 0.215264 -0.655181
87 1 2.79056 12.8708 1.9953 -0.902353 -1.46913 1.29705
55 1 10.0474 12.5939 2.63462 -0.389154 1.37855 -2.07981
88 1 9.79063 13.0688 1.6417 0.513236 0.792267 1.53625
2 1 13.3425 13.1012 1.46369 1.9978 -0.223067 -1.31055
40 1 1.03414 2.78392 3.94963 0.128978 1.97973 1.8898
42 1 2.08453 2.62996 3.62453 -1.13771 -1.3703 1.76264
43 1 3.07148 2.43733 3.24677 -0.595319 -1.86171 -1.18317
62 1 4.6478 1.54404 4.26036 0.771261 -1.51554 0.481523
100 1 4.86288 2.50389 3.71493 -1.12309 1.64298 1.03269
14 1 6.62034 3.97811 3.11336 1.37466 1.52789 -0.15485
56 1 8.36994 3.64941 3.49525 0.681364 -0.80626 -1.06223
35 1 7.10073 4.9396 3.65433 -0.361984 -1.83424 0.796386
54 1 10.634 5.04553 3.26776 2.07365 1.48848 1.76037
92 1 13.6568 5.01232 3.82346 -1.25223 -1.49302 -0.0178165
16 1 8.58822 6.16789 3.58101 0.806047 -0.212545 0.958807
95 1 5.88118 8.96333 4.28279 0.875179 -0.741679 -1.44977
49 1 7.76613 8.41716 3.17172 -0.453857 -0.294053 -2.11974
21 1 11.2801 8.05906 3.54913 -0.69475 0.400652 -1.69953
98 1 12.3871 10.388 3.28125 0.575672 -1.58781 -0.66978
74 1 6.31139 11.607 3.39804 0.233968 -0.53123 1.40957
61 1 7.54358 11.9907 3.89394 -0.818749 -1.48498 -1.13178
67 1 1.39831 13.3559 3.22593 -1.5817 0.806541 -1.28155
45 1 5.27884 12.485 4.07012 0.0357028 1.25215 -1.73759
3 1 13.0006 12.5368 4.20872 -1.92472 0.987444 -1.07155
29 1 10.9385 13.7272 3.97059 -0.375208 1.57299 -0.0100879
24 1 1.60488 1.22852 4.95923 -2.12356 1.64103 -2.00982
65 1 2.23622 4.21491 4.39922 1.62143 1.63385 0.883534
81 1 8.62829 3.73229 4.90005 1.15394 0.571366 1.83435
17 1 12.6164 3.27669 4.64114 0.0809889 0.18955 1.49514
20 1 3.74457 4.99771 4.8158 0.863437 2.02528 0.99195
83 1 6.33421 5.06812 5.10548 1.72395 0.258757 -2.04766
44 1 10.4159 5.08751 5.70179 1.44223 0.25258 0.583343
7 1 8.85902 7.48444 4.4023 -1.57617 -0.0163399 -1.38695
99 1 2.50724 9.10262 5.00777 -1.03757 -0.28373 1.0616
63 1 3.06963 10.3162 5.23904 0.476485 0.521385 0.645359
48 1 12.3824 9.39266 4.78834 1.99877 -0.863626 1.34386
73 1 6.92787 11.7386 4.71278 -1.77217 1.6079 -0.962321
53 1 7.92649 12.5601 5.22435 -0.605808 0.681107 -1.73315
57 1 10.5565 1.79097 6.4416 -1.30462 -0.684999 1.63179
10 1 8.36915 3.26219 6.99961 1.83487 -0.612951 -0.99734
22 1 5.7301 4.86329 6.78124 0.773132 0.124367 0.271702
11 1 13.2515 5.35676 6.61862 -0.720346 0.277718 1.54811
25 1 9.27744 6.92157 7.05805 1.76224 0.696462 0.872315
68 1 11.3906 6.08687 5.83921 0.0763288 -1.48865 1.04138
41 1 13.1697 8.88458 5.95548 -0.949552 1.50996 0.843462
4 1 2.37657 10.0356 6.24955 -0.400446 -1.04575 1.94329
94 1 6.63689 9.15381 6.5993 -1.38265 -0.559065 1.96211
80 1 11.1665 10.2746 6.61976 -0.477623 0.53923 -1.76133
33 1 1.33252 12.6964 6.9803 0.0110376 -0.268381 -0.70643
47 1 13.027 1.33629 7.9158 0.354328 -0.199253 -1.31741
79 1 3.48837 2.06954 7.72351 0.952339 1.6443 1.97166
15 1 8.47272 1.99218 7.58418 1.09796 0.655487 2.0034
38 1 12.7185 3.92283 7.88571 -0.476674 -0.55648 -1.41949
8 1 8.78231 5.22999 7.52449 -0.117315 1.32007 -1.4681
23 1 2.78246 6.83497 7.49553 -0.35238 2.03207 0.160377
72 1 6.34437 6.76924 7.68264 0.0151538 0.784727 -1.70652
75 1 3.78728 7.86988 7.28938 1.00138 -0.161461 -0.597298
6 1 4.99393 7.89773 7.38552 0.617242 -1.2298 -0.0164275
85 1 1.46233 10.4008 7.58408 -0.803449 0.188286 1.54023
19 1 7.64094 10.2754 7.22466 -0.73278 -0.0735497 -0.600249
50 1 8.38111 9.32876 8.20413 -1.78882 -1.5464 1.37761
89 1 5.2973 10.6445 8.34395 1.17909 1.72232 1.66134
31 1 6.85436 11.2415 7.50587 1.09602 -2.06948 -1.49288
90 1 8.28079 13.2055 7.98756 0.0496997 -1.95075 1.29638
76 1 1.84855 1.59702 8.64709 -0.635382 1.82587 0.618238
46 1 4.63625 2.43404 9.93838 -0.221471 0.822971 -1.90629
58 1 10.0444 1.70385 9.72568 1.63939 1.08622 -1.49204
5 1 4.15442 3.31118 9.97125 -0.399579 0.744412 1.99377
34 1 12.522 3.84712 8.94266 0.391214 -1.93337 -0.397644
66 1 11.9884 5.49539 8.66129 -0.40355 2.13018 1.26095
1 1 12.8385 5.3524 9.83986 -2.10951 -0.721853 -0.368115
60 1 1.04293 7.47478 9.06744 0.936261 -0.324241 1.47229
39 1 6.93939 10.3537 8.65271 -1.87801 -1.74697 -1.49157
37 1 7.78551 9.11305 9.37931 0.0256559 -1.54435 1.75327
36 1 11.6452 9.20971 9.01712 -0.353595 -1.35614 1.21317
82 1 9.99856 10.8797 9.85939 -0.421888 0.501969 -2.08228
27 1 11.1828 10.5819 9.35724 0.866596 -0.233117 0.0984825
51 1 12.1891 11.3546 8.99564 0.462394 2.14709 0.0791773
18 1 9.2623 12.528 9.82624 0.0677849 -0.312996 -1.14276
84 1 10.8666 13.1623 9.92666 0.30348 1.05226 -1.78298
ITEM: TIMESTEP
10
ITEM: NUMBER OF ATOMS
100
ITEM: BOX BOUNDS ff ff pp
0.0000000000000000e+00 1.5000000000000000e+01
0.0000000000000000e+00 1.5000000000000000e+01
0.0000000000000000e+00 1.0000000000000000e+01
ITEM: ATOMS id type x y z vx vy vz
70 1 9.38503 1.86827 1.13485 1.33563 0.645002 1.82077
78 1 7.04491 8.60764 1.39997 -1.48301 -0.506405 0.886819
71 1 4.09398 10.0861 1.10077 0.738892 0.934233 -2.09062
30 1 4.50959 11.243 1.26954 -1.50826 -0.772129 -0.0245147
86 1 6.24842 12.5569 1.37899 -0.148943 -1.23645 1.3231
12 1 7.01831 2.22549 2.18139 0.388948 -0.664069 -1.95623
13 1 8.23704 2.25225 2.43965 0.702768 -0.328526 1.84304
93 1 9.60054 1.73832 2.38805 0.551543 -0.754919 -0.903722
69 1 6.18781 3.56416 1.38963 -0.151658 -2.01694 -1.33818
91 1 9.81447 3.23196 2.21309 1.92667 -0.983795 -1.79706
28 1 9.78931 5.40814 2.40069 0.89294 0.373705 0.29585
96 1 6.56894 6.33505 1.50969 0.163768 -0.422265 -0.825538
9 1 2.56883 7.85343 1.50985 -1.42811 -1.0907 -0.0798892
77 1 7.70175 7.87924 1.76412 -0.590431 -2.06054 0.353377
97 1 13.404 8.29588 2.00557 0.602059 -0.923069 -1.33574
26 1 1.94183 10.0153 1.50128 -1.60628 -1.35739 1.2775
32 1 5.42338 10.0725 2.53284 -0.452185 -0.292969 1.85076
52 1 6.38382 9.30533 2.43542 -0.0501929 2.01142 0.0260175
59 1 10.3944 11.6949 2.74059 0.984173 0.910529 -0.888388
64 1 2.16371 12.4015 2.78607 -1.14256 0.134722 -0.350605
87 1 2.74847 12.7998 2.05603 -0.698713 -1.31284 1.02917
55 1 10.0247 12.6754 2.53629 -0.39371 1.57418 -1.47186
88 1 9.81426 13.1124 1.70993 0.338857 1.14282 0.829115
2 1 13.4424 13.0901 1.39817 1.9978 -0.223067 -1.31055
40 1 1.03919 2.88321 4.04487 0.0599585 1.99664 1.92465
42 1 2.02751 2.56162 3.71322 -1.08517 -1.3806 1.7616
43 1 3.04395 2.34392 3.18713 -0.551878 -1.86551 -1.18311
62 1 4.68649 1.4698 4.2836 0.777867 -1.43766 0.440697
100 1 4.80617 2.58459 3.76721 -1.14673 1.56793 1.06565
14 1 6.68986 4.05503 3.10574 1.3808 1.49781 -0.182622
56 1 8.4038 3.60906 3.44298 0.671109 -0.808945 -1.03409
35 1 7.08224 4.84686 3.69451 -0.3545 -1.8225 0.849764
54 1 10.7358 5.12057 3.354 1.99912 1.51135 1.69135
92 1 13.5941 4.93756 3.82262 -1.25484 -1.49742 -0.0155889
16 1 8.62879 6.15796 3.62928 0.816991 -0.181966 0.972502
95 1 5.92509 8.92634 4.20988 0.881006 -0.737519 -1.46788
49 1 7.74298 8.40201 3.06389 -0.473152 -0.313497 -2.19711
21 1 11.2454 8.07918 3.46423 -0.692132 0.403584 -1.69659
98 1 12.4158 10.3085 3.24813 0.574775 -1.5933 -0.655809
74 1 6.32509 11.5821 3.47154 0.32047 -0.463021 1.53555
61 1 7.50577 11.918 3.83119 -0.71675 -1.43577 -1.35416
67 1 1.32102 13.3943 3.1609 -1.51037 0.729717 -1.31877
45 1 5.28194 12.5466 3.98278 0.0887617 1.212 -1.75486
3 1 12.9043 12.5862 4.15511 -1.92767 0.986936 -1.07263
29 1 10.9197 13.8057 3.96991 -0.377259 1.56467 -0.0171039
24 1 1.49869 1.31105 4.85838 -2.12344 1.66236 -2.02568
65 1 2.31758 4.29618 4.44324 1.63309 1.61893 0.878366
81 1 8.68569 3.7608 4.99034 1.1428 0.568676 1.78342
17 1 12.6205 3.28627 4.71585 0.0836027 0.193947 1.49292
20 1 3.78725 5.09871 4.86526 0.843553 2.01469 0.986349
83 1 6.42075 5.08086 5.00249 1.74023 0.249461 -2.07768
44 1 10.4896 5.10176 5.73116 1.50763 0.321056 0.592622
7 1 8.77984 7.48277 4.33213 -1.59056 -0.0523833 -1.42049
99 1 2.45623 9.09112 5.06214 -1.00332 -0.179659 1.11233
63 1 3.09093 10.3396 5.27323 0.378193 0.416917 0.719992
48 1 12.4831 9.34909 4.85656 2.03194 -0.880487 1.391
73 1 6.83468 11.8185 4.67011 -1.93978 1.59765 -0.776514
53 1 7.89426 12.5924 5.13567 -0.683962 0.608453 -1.81272
57 1 10.4912 1.75673 6.52323 -1.30729 -0.684685 1.63332
10 1 8.46107 3.2299 6.95057 1.84167 -0.677759 -0.963557
22 1 5.76893 4.86966 6.79449 0.77962 0.130425 0.259422
11 1 13.2153 5.37051 6.69618 -0.729918 0.271926 1.55453
25 1 9.36542 6.95598 7.10177 1.75686 0.679879 0.87634
68 1 11.3929 6.01073 5.89109 0.0128137 -1.56055 1.03269
41 1 13.1214 8.96065 5.99626 -0.988286 1.53431 0.782327
4 1 2.35778 9.98345 6.34413 -0.353524 -1.03802 1.84246
94 1 6.56828 9.12654 6.69788 -1.36123 -0.531398 1.98189
80 1 11.1427 10.3015 6.53163 -0.474932 0.537337 -1.76383
33 1 1.33308 12.6829 6.945 0.0111639 -0.271011 -0.705671
47 1 13.0447 1.32633 7.84993 0.354328 -0.199253 -1.31741
79 1 3.53578 2.15169 7.82225 0.944342 1.64209 1.97837
15 1 8.52755 2.02678 7.68338 1.09565 0.727499 1.96339
38 1 12.6951 3.89567 7.81207 -0.465268 -0.533167 -1.48904
8 1 8.77658 5.29624 7.4509 -0.111457 1.33052 -1.47531
23 1 2.76609 6.93782 7.50332 -0.300993 2.08164 0.150861
72 1 6.34467 6.80872 7.59718 -0.00435498 0.795092 -1.71191
75 1 3.83891 7.86063 7.26002 1.0606 -0.209358 -0.576072
6 1 5.02245 7.83592 7.3845 0.526889 -1.24242 -0.0248297
85 1 1.42259 10.4101 7.66045 -0.786456 0.183589 1.51493
19 1 7.60204 10.2726 7.19658 -0.816583 -0.0483473 -0.527223
50 1 8.28965 9.25192 8.27471 -1.86812 -1.52809 1.44789
89 1 5.35733 10.7305 8.42697 1.22506 1.71759 1.65935
31 1 6.91066 11.1347 7.43215 1.14622 -2.19418 -1.45154
90 1 8.28331 13.1078 8.05248 0.051292 -1.95418 1.30091
76 1 1.81701 1.68837 8.67788 -0.626361 1.82839 0.613453
46 1 4.63624 2.4552 9.84112 0.136254 0.178364 -1.98514
58 1 10.1259 1.75825 9.65209 1.61986 1.08949 -1.45492
5 1 4.1234 3.3684 10.0729 -0.756139 1.38976 2.07255
34 1 12.5411 3.75104 8.92562 0.377114 -1.90845 -0.321342
66 1 11.9696 5.601 8.72576 -0.34783 2.09452 1.32168
1 1 12.7318 5.31612 9.81964 -2.1583 -0.726645 -0.444303
60 1 1.08978 7.45855 9.14102 0.938017 -0.324837 1.47064
39 1 6.84581 10.2668 8.57582 -1.86679 -1.72557 -1.58556
37 1 7.78752 9.03673 9.46445 0.055006 -1.51035 1.65168
36 1 11.6271 9.1434 9.07811 -0.370411 -1.2974 1.22567
82 1 9.97975 10.9047 9.75432 -0.332137 0.497318 -2.11818
27 1 11.2261 10.571 9.36207 0.862961 -0.202102 0.0942778
51 1 12.2102 11.4603 9.00034 0.384364 2.08403 0.107738
18 1 9.26642 12.5123 9.76922 0.0960779 -0.318334 -1.13909
84 1 10.8811 13.2146 9.83761 0.279856 1.03927 -1.77939
ITEM: TIMESTEP
20
ITEM: NUMBER OF ATOMS
100
ITEM: BOX BOUNDS ff ff pp
0.0000000000000000e+00 1.5000000000000000e+01
0.0000000000000000e+00 1.5000000000000000e+01
0.0000000000000000e+00 1.0000000000000000e+01
ITEM: ATOMS id type x y z vx vy vz
70 1 9.45239 1.90068 1.2288 1.35685 0.654205 1.9306
78 1 6.96617 8.58765 1.44401 -1.61305 -0.350196 0.903778
71 1 4.13184 10.1354 0.996894 0.770585 1.02476 -2.06563
30 1 4.43349 11.2018 1.26805 -1.53124 -0.864517 -0.0346464
86 1 6.24088 12.4949 1.44522 -0.152553 -1.24061 1.32589
12 1 7.04035 2.19296 2.08419 0.490081 -0.636449 -1.93043
13 1 8.27154 2.23589 2.53099 0.678944 -0.324147 1.80862
93 1 9.62627 1.70288 2.34004 0.480347 -0.663093 -1.00587
69 1 6.18051 3.46295 1.32321 -0.140384 -2.03186 -1.31917
91 1 9.90997 3.18104 2.12333 1.89239 -1.05563 -1.79503
28 1 9.83517 5.42645 2.4172 0.939285 0.36031 0.362023
96 1 6.57733 6.31426 1.46846 0.172206 -0.408481 -0.823621
9 1 2.49739 7.79899 1.50585 -1.42926 -1.08677 -0.0798426
77 1 7.67591 7.77265 1.78599 -0.49503 -2.14294 0.495594
97 1 13.4341 8.24973 1.93879 0.602059 -0.923069 -1.33574
26 1 1.86165 9.94736 1.56513 -1.60134 -1.36111 1.27663
32 1 5.40299 10.0563 2.62497 -0.363732 -0.352738 1.8338
52 1 6.38034 9.40613 2.43609 -0.0887952 2.01661 0.00269078
59 1 10.4451 11.7366 2.69682 1.04009 0.770997 -0.866276
64 1 2.08856 12.3996 2.78886 -1.88622 -0.209529 0.471637
87 1 2.72987 12.7447 2.08796 -0.0221157 -0.895274 0.237185
55 1 10.0208 12.7207 2.53126 0.170996 0.363171 0.991886
88 1 9.81394 13.2069 1.68207 -0.277471 2.49625 -1.66061
2 1 13.5423 13.0789 1.33264 1.9978 -0.223067 -1.31055
40 1 1.04025 2.98368 4.1421 -0.00277866 2.01673 1.95987
42 1 1.97763 2.49099 3.79977 -0.92296 -1.44524 1.70289
43 1 3.0144 2.25118 3.1295 -0.634206 -1.84322 -1.11808
62 1 4.72549 1.40062 4.30441 0.780695 -1.33258 0.394621
100 1 4.74832 2.66029 3.82153 -1.1653 1.46259 1.10472
14 1 6.75252 4.11588 3.08477 1.05103 0.782275 -0.821971
56 1 8.4369 3.56832 3.39142 0.651744 -0.822522 -1.03167
35 1 7.07093 4.76961 3.7503 -0.0264309 -1.10999 1.5552
54 1 10.8342 5.19654 3.43715 1.94006 1.5264 1.63738
92 1 13.5313 4.86256 3.82192 -1.25795 -1.50274 -0.012505
16 1 8.6699 6.14995 3.67831 0.826985 -0.136326 0.989405
95 1 5.96928 8.88963 4.13592 0.886533 -0.730341 -1.49132
49 1 7.71873 8.38559 2.95162 -0.498153 -0.345612 -2.29813
21 1 11.2108 8.09942 3.37946 -0.689749 0.406308 -1.69461
98 1 12.4446 10.2286 3.21562 0.574904 -1.6003 -0.644952
74 1 6.34387 11.561 3.55188 0.42885 -0.377788 1.67514
61 1 7.46902 11.8463 3.7619 -0.775733 -1.43565 -1.38585
67 1 1.24723 13.4289 3.09415 -1.44177 0.655034 -1.34973
45 1 5.28776 12.6061 3.89478 0.144445 1.16779 -1.76344
3 1 12.8078 12.6356 4.10148 -1.93054 0.988655 -1.07289
29 1 10.9008 13.8837 3.96892 -0.37781 1.55844 -0.0224136
24 1 1.39266 1.39507 4.75644 -2.11615 1.70237 -2.05424
65 1 2.39955 4.37695 4.48714 1.64602 1.61361 0.878577
81 1 8.74265 3.78915 5.07884 1.13612 0.565333 1.76008
17 1 12.6247 3.2961 4.79042 0.0867078 0.199263 1.48983
20 1 3.8289 5.19916 4.91442 0.82215 2.00269 0.980077
83 1 6.50852 5.09288 4.89707 1.7738 0.228383 -2.1469
44 1 10.5669 5.11982 5.76113 1.5836 0.39892 0.606215
7 1 8.70001 7.47897 4.26019 -1.60192 -0.10212 -1.45749
99 1 2.40685 9.08439 5.11895 -0.97235 -0.091664 1.15969
63 1 3.10775 10.3582 5.31078 0.297389 0.329201 0.779352
48 1 12.5857 9.30452 4.9281 2.07526 -0.90253 1.47613
73 1 6.73636 11.899 4.63119 -1.96806 1.62001 -0.812693
53 1 7.85804 12.621 5.04321 -0.765099 0.537567 -1.88414
57 1 10.4257 1.72252 6.60495 -1.31184 -0.683247 1.6356
10 1 8.55329 3.19454 6.90329 1.84708 -0.735397 -0.927589
22 1 5.80804 4.87633 6.80726 0.784281 0.136186 0.252134
11 1 13.1785 5.38392 6.77408 -0.741196 0.263854 1.56119
25 1 9.4531 6.98953 7.14567 1.74995 0.662012 0.879489
68 1 11.3916 5.93061 5.9424 -0.0604734 -1.64184 1.01987
41 1 13.0707 9.0381 6.03312 -1.03796 1.56337 0.686957
4 1 2.34099 9.93175 6.43408 -0.320107 -1.03038 1.75846
94 1 6.50078 9.10067 6.79752 -1.33833 -0.502671 2.00386
80 1 11.119 10.3283 6.44338 -0.471065 0.534686 -1.76639
33 1 1.33364 12.6693 6.90974 0.0112416 -0.273528 -0.704813
47 1 13.0624 1.31636 7.78406 0.354328 -0.199253 -1.31741
79 1 3.58284 2.23376 7.92136 0.938383 1.64049 1.98611
15 1 8.58234 2.06479 7.78042 1.09716 0.791067 1.91794
38 1 12.6717 3.86919 7.7391 -0.472038 -0.528976 -1.41704
8 1 8.7712 5.36308 7.37698 -0.103434 1.34343 -1.48118
23 1 2.75249 7.04309 7.51058 -0.242112 2.12858 0.138808
72 1 6.34379 6.84888 7.51143 -0.0323528 0.812581 -1.71795
75 1 3.89297 7.84892 7.23183 1.09725 -0.258977 -0.551103
6 1 5.04702 7.77349 7.38302 0.461207 -1.25495 -0.0344913
85 1 1.38367 10.4191 7.7356 -0.770117 0.178183 1.49136
19 1 7.56417 10.2643 7.1702 -0.553827 -0.470456 -0.575209
50 1 8.19443 9.17585 8.34915 -1.9391 -1.51561 1.53222
89 1 5.42005 10.816 8.50984 1.28562 1.69965 1.65461
31 1 6.96381 11.0284 7.36246 0.832359 -1.87017 -1.28893
90 1 8.28595 13.01 8.11769 0.0546468 -1.95825 1.3078
76 1 1.7859 1.77985 8.70845 -0.618185 1.83052 0.609626
46 1 4.64366 2.46302 9.74154 0.134394 0.180345 -1.98258
58 1 10.2066 1.81277 9.57992 1.60888 1.09098 -1.43454
5 1 4.08502 3.43901 0.176804 -0.752926 1.38835 2.0688
34 1 12.5601 3.65643 8.90818 0.384419 -1.8744 -0.388955
66 1 11.9538 5.70474 8.79379 -0.284421 2.05292 1.40223
1 1 12.6225 5.28004 9.79512 -2.21726 -0.713154 -0.538763
60 1 1.13673 7.4423 9.2145 0.93985 -0.325349 1.46878
39 1 6.75258 10.1814 8.49404 -1.86335 -1.68471 -1.68593
37 1 7.79101 8.96192 9.54439 0.083907 -1.48246 1.54499
36 1 11.6083 9.07986 9.13962 -0.382968 -1.24532 1.23453
82 1 9.9652 10.9295 9.64778 -0.251447 0.496245 -2.1415
27 1 11.2688 10.5617 9.36662 0.845625 -0.173081 0.0872907
51 1 12.2278 11.5631 9.00632 0.32261 2.02885 0.130881
18 1 9.27185 12.4961 9.71223 0.120705 -0.327283 -1.14127
84 1 10.8946 13.2662 9.7487 0.260855 1.02737 -1.77694
ITEM: TIMESTEP
30
ITEM: NUMBER OF ATOMS
100
ITEM: BOX BOUNDS ff ff pp
0.0000000000000000e+00 1.5000000000000000e+01
0.0000000000000000e+00 1.5000000000000000e+01
0.0000000000000000e+00 1.0000000000000000e+01
ITEM: ATOMS id type x y z vx vy vz
70 1 9.51993 1.93511 1.32265 1.32514 0.766643 1.6737
78 1 6.8863 8.56985 1.49167 -1.57045 -0.372112 1.00743
71 1 4.17016 10.1855 0.893373 0.750056 0.920936 -2.09681
30 1 4.3573 11.1597 1.26686 -1.50412 -0.761408 0.00814276
86 1 6.23317 12.4328 1.51158 -0.155676 -1.24422 1.32874
12 1 7.0669 2.16188 1.98842 0.566677 -0.606646 -1.90017
13 1 8.30521 2.22006 2.6204 0.671385 -0.30633 1.76749
93 1 9.64953 1.67088 2.29309 0.472448 -0.657069 -0.718647
69 1 6.17381 3.36092 1.25769 -0.127204 -2.05007 -1.3016
91 1 10.0036 3.12609 2.03342 1.85112 -1.14626 -1.80339
28 1 9.88304 5.44429 2.43668 0.973692 0.353853 0.415557
96 1 6.5862 6.29425 1.42735 0.183125 -0.391447 -0.820193
9 1 2.4259 7.74475 1.50186 -1.43047 -1.08274 -0.0796669
77 1 7.64977 7.66803 1.81264 -0.55972 -2.02857 0.567416
97 1 13.4642 8.20357 1.872 0.602059 -0.923069 -1.33574
26 1 1.78168 9.87921 1.62894 -1.59812 -1.36494 1.2759
32 1 5.3868 10.0376 2.71623 -0.287421 -0.394823 1.81744
52 1 6.37508 9.50652 2.43585 -0.119014 1.99384 -0.0112876
59 1 10.4989 11.7712 2.65391 1.11686 0.604238 -0.851691
64 1 1.98278 12.3858 2.82355 -2.24559 -0.286113 0.806076
87 1 2.73862 12.7051 2.0893 0.272756 -0.74285 -0.0747804
55 1 10.0299 12.7376 2.59002 0.146137 0.41879 1.19234
88 1 9.79786 13.3369 1.58939 -0.325093 2.61022 -1.87867
2 1 13.6422 13.0678 1.26711 1.9978 -0.223067 -1.31055
40 1 1.04073 3.08387 4.24019 0.0376536 1.97848 1.95743
42 1 1.93294 2.41753 3.88436 -0.888374 -1.48771 1.69146
43 1 2.98062 2.1596 3.07541 -0.713885 -1.82043 -1.04646
62 1 4.76444 1.33608 4.32335 0.776636 -1.25425 0.365551
100 1 4.68981 2.73129 3.8774 -1.17395 1.38279 1.12756
14 1 6.79589 4.13492 3.02168 0.763697 0.143232 -1.54381
56 1 8.46891 3.52655 3.33953 0.628436 -0.85179 -1.04644
35 1 7.07843 4.73449 3.85236 0.25289 -0.462032 2.35518
54 1 10.93 5.27311 3.51795 1.89402 1.53582 1.5966
92 1 13.4683 4.78727 3.82139 -1.26156 -1.50904 -0.008331
16 1 8.71141 6.14457 3.72823 0.832307 -0.0760572 1.00716
95 1 6.01373 8.85338 4.06067 0.891356 -0.718992 -1.51921
49 1 7.69304 8.36716 2.83375 -0.530811 -0.394215 -2.41885
21 1 11.1764 8.1198 3.29476 -0.68768 0.409011 -1.69377
98 1 12.4733 10.1485 3.18359 0.574523 -1.60653 -0.63657
74 1 6.36602 11.5436 3.63725 0.407163 -0.344252 1.69302
61 1 7.4281 11.775 3.69475 -0.832492 -1.40298 -1.28756
67 1 1.1768 13.4597 3.02605 -1.37556 0.577596 -1.37306
45 1 5.29639 12.6634 3.80661 0.200905 1.12219 -1.76169
3 1 12.7112 12.6851 4.04783 -1.93382 0.990872 -1.07308
29 1 10.8819 13.9615 3.96767 -0.377909 1.55157 -0.0277202
24 1 1.28737 1.4818 4.65263 -2.09091 1.77373 -2.1024
65 1 2.48223 4.45765 4.53115 1.66126 1.61531 0.882258
81 1 8.79934 3.81731 5.16664 1.13171 0.560821 1.75454
17 1 12.6292 3.30621 4.86481 0.0903195 0.20557 1.48566
20 1 3.86944 5.29896 4.96325 0.799055 1.98905 0.973028
83 1 6.59835 5.10344 4.78733 1.81238 0.197829 -2.2283
44 1 10.6459 5.13964 5.79134 1.51292 0.333672 0.585607
7 1 8.61974 7.47233 4.18637 -1.60753 -0.165656 -1.49522
99 1 2.35895 9.08175 5.17809 -0.944021 -0.0156403 1.20553
63 1 3.12092 10.3728 5.35093 0.231795 0.255943 0.824497
48 1 12.6903 9.25903 5.00401 2.10056 -0.91258 1.54279
73 1 6.63994 11.9806 4.58819 -1.86755 1.65936 -0.876693
53 1 7.81772 12.6462 4.9474 -0.847916 0.470081 -1.94659
57 1 10.36 1.68843 6.6868 -1.31852 -0.680323 1.63872
10 1 8.64576 3.15653 6.85778 1.85164 -0.782625 -0.893925
22 1 5.84734 4.88328 6.81975 0.787743 0.141831 0.247876
11 1 13.1411 5.39686 6.8523 -0.754177 0.253251 1.56758
25 1 9.5404 7.02217 7.1897 1.74201 0.643451 0.881213
68 1 11.3889 5.84856 5.99353 0.0134767 -1.57967 1.04166
41 1 13.0178 9.11679 6.06517 -1.06947 1.57997 0.613361
4 1 2.32557 9.88038 6.5202 -0.298245 -1.02492 1.68807
94 1 6.43448 9.07632 6.89831 -1.31324 -0.471169 2.02814
80 1 11.0956 10.355 6.355 -0.466555 0.531666 -1.76868
33 1 1.3342 12.6556 6.87452 0.0112742 -0.275894 -0.703884
47 1 13.0801 1.3064 7.71819 0.354328 -0.199253 -1.31741
79 1 3.62967 2.31575 8.02091 0.935552 1.63952 1.99647
15 1 8.63733 2.1057 7.87514 1.10273 0.843543 1.87058
38 1 12.6479 3.84258 7.67091 -0.477361 -0.53646 -1.30918
8 1 8.76626 5.43061 7.30281 -0.0936142 1.35782 -1.48544
23 1 2.74197 7.15059 7.51717 -0.177618 2.17022 0.124594
72 1 6.34124 6.89009 7.4254 -0.0722882 0.837168 -1.72304
75 1 3.94806 7.83478 7.20492 1.09897 -0.305168 -0.525645
6 1 5.06927 7.71038 7.38106 0.437876 -1.27065 -0.0434148
85 1 1.34556 10.4279 7.80962 -0.754746 0.172326 1.46983
19 1 7.566 10.2004 7.13309 0.629917 -2.09482 -0.906935
50 1 8.09589 9.10028 8.42809 -2.00109 -1.50781 1.62618
89 1 5.48603 10.9002 8.59232 1.35416 1.66566 1.64304
31 1 6.9743 10.9728 7.30917 -0.417651 -0.34336 -0.846187
90 1 8.28884 12.912 8.18333 0.0617982 -1.96176 1.31891
76 1 1.75518 1.87142 8.73886 -0.610885 1.83231 0.606628
46 1 4.649 2.47435 9.64345 0.08028 0.269377 -1.94122
58 1 10.2868 1.86734 9.50847 1.60164 1.09181 -1.42431
5 1 4.04876 3.50612 0.279118 -0.699095 1.29942 2.02306
34 1 12.5795 3.5637 8.88611 0.391764 -1.83438 -0.496033
66 1 11.9412 5.80608 8.8661 -0.221882 1.9987 1.48896
1 1 12.5101 5.24517 9.76571 -2.27617 -0.6788 -0.636172
60 1 1.18377 7.42602 9.28789 0.941695 -0.325741 1.46676
39 1 6.65943 10.0986 8.40728 -1.86245 -1.62725 -1.78294
37 1 7.79585 8.88843 9.61886 0.10895 -1.45759 1.43324
36 1 11.5889 9.01877 9.20151 -0.392405 -1.19935 1.24059
82 1 9.95442 10.9544 9.54035 -0.18211 0.499413 -2.15396
27 1 11.3105 10.5536 9.37076 0.81999 -0.14823 0.0781843
51 1 12.2427 11.6634 9.01334 0.27483 1.98302 0.149081
18 1 9.27843 12.4795 9.655 0.141632 -0.339392 -1.14901
84 1 10.9073 13.3173 9.65991 0.245328 1.01659 -1.77452
ITEM: TIMESTEP
40
ITEM: NUMBER OF ATOMS
100
ITEM: BOX BOUNDS ff ff pp
0.0000000000000000e+00 1.5000000000000000e+01
0.0000000000000000e+00 1.5000000000000000e+01
0.0000000000000000e+00 1.0000000000000000e+01
ITEM: ATOMS id type x y z vx vy vz
70 1 9.5825 1.98574 1.3735 1.17621 1.32362 0.261531
78 1 6.80968 8.55013 1.54492 -1.49129 -0.416605 1.12338
71 1 4.20608 10.2209 0.783966 0.689423 0.458656 -2.3078
30 1 4.28383 11.1323 1.27206 -1.4378 -0.298529 0.227782
86 1 6.2253 12.3705 1.57814 -0.158916 -1.24729 1.33433
12 1 7.09651 2.13234 1.89408 0.612455 -0.574557 -1.8749
13 1 8.33901 2.2056 2.70784 0.684026 -0.267577 1.73209
93 1 9.67629 1.62923 2.29116 0.604044 -1.06909 0.742429
69 1 6.16784 3.2579 1.19306 -0.110754 -2.07138 -1.28338
91 1 10.0948 3.06593 1.94278 1.79559 -1.26511 -1.82445
28 1 9.93238 5.46191 2.45859 0.998828 0.351788 0.458965
96 1 6.59569 6.27518 1.38647 0.197071 -0.370625 -0.814539
9 1 2.35434 7.69072 1.49787 -1.43227 -1.07877 -0.0803929
77 1 7.61968 7.57014 1.84245 -0.643134 -1.89068 0.61915
97 1 13.4943 8.15742 1.80521 0.602059 -0.923069 -1.33574
26 1 1.7018 9.81086 1.69273 -1.59687 -1.36905 1.27559
32 1 5.37385 10.0172 2.80683 -0.234247 -0.419166 1.80779
52 1 6.36876 9.60509 2.43503 -0.130956 1.94578 -0.020676
59 1 10.5567 11.7976 2.61137 1.18462 0.471628 -0.852342
64 1 1.86952 12.3736 2.86377 -2.26266 -0.193939 0.781521
87 1 2.75169 12.6678 2.08603 0.228427 -0.754971 -0.0365864
55 1 10.0348 12.7641 2.64725 0.0584717 0.618182 1.10219
88 1 9.78224 13.4658 1.49775 -0.300648 2.54649 -1.79018
2 1 13.742 13.0566 1.20158 1.9978 -0.223067 -1.31055
40 1 1.0448 3.18057 4.33745 0.126833 1.88305 1.93126
42 1 1.88698 2.34259 3.96979 -0.960586 -1.50565 1.72997
43 1 2.94339 2.06905 3.02467 -0.771159 -1.80263 -0.985732
62 1 4.80312 1.27475 4.34117 0.770337 -1.20286 0.349166
100 1 4.63101 2.79901 3.9341 -1.17726 1.32954 1.13868
14 1 6.83388 4.14064 2.94288 0.772178 0.120335 -1.55505
56 1 8.49971 3.48278 3.28658 0.603425 -0.902918 -1.0732
35 1 7.09953 4.70575 3.95784 0.851135 -0.990541 1.32206
54 1 11.0238 5.35005 3.59698 1.85825 1.54077 1.56598
92 1 13.4052 4.71164 3.82111 -1.26614 -1.51624 -0.00286739
16 1 8.753 6.14255 3.77899 0.829322 -0.00335446 1.02259
95 1 6.05838 8.81782 3.98393 0.894533 -0.70242 -1.55112
49 1 7.66545 8.34609 2.70975 -0.57553 -0.446206 -2.53747
21 1 11.1421 8.14031 3.21007 -0.686169 0.411258 -1.69386
98 1 12.502 10.068 3.15193 0.573852 -1.61168 -0.630254
74 1 6.37621 11.5208 3.71299 -0.0965635 -0.652339 1.24213
61 1 7.39187 11.7076 3.63332 -0.537996 -1.27932 -1.18061
67 1 1.10962 13.4866 2.95699 -1.31216 0.495584 -1.38774
45 1 5.30786 12.7184 3.71874 0.257752 1.07698 -1.75145
3 1 12.6144 12.7347 3.99417 -1.93756 0.993574 -1.07319
29 1 10.863 14.0389 3.96614 -0.377675 1.54364 -0.0332435
24 1 1.18413 1.57307 4.54587 -2.0341 1.87997 -2.16814
65 1 2.56573 4.53857 4.5754 1.67937 1.62209 0.888163
81 1 8.85584 3.84519 5.25451 1.12844 0.5538 1.76203
17 1 12.6338 3.31667 4.93897 0.0944155 0.212888 1.48015
20 1 3.90877 5.39803 5.01171 0.774042 1.97346 0.965068
83 1 6.68141 5.11992 4.68972 1.23382 0.730037 -1.18781
44 1 10.7046 5.14051 5.81554 0.669043 -0.451453 0.322707
7 1 8.53939 7.46221 4.1107 -1.60524 -0.240793 -1.53101
99 1 2.31242 9.08268 5.2395 -0.917565 0.0515374 1.25124
63 1 3.13111 10.384 5.39305 0.177602 0.194065 0.85901
48 1 12.7944 9.2138 5.07714 2.04448 -0.89466 1.28605
73 1 6.55194 12.069 4.55123 -1.63312 1.94605 -0.499433
53 1 7.7732 12.6681 4.84867 -0.933711 0.405302 -2.00164
57 1 10.2938 1.65452 6.76883 -1.3273 -0.675686 1.64271
10 1 8.73845 3.11649 6.81378 1.85574 -0.816997 -0.867341
22 1 5.8868 4.89051 6.83208 0.790396 0.14742 0.245393
11 1 13.1031 5.4092 6.93082 -0.768898 0.240295 1.57294
25 1 9.6273 7.05387 7.23376 1.73416 0.62457 0.880867
68 1 11.4065 5.78534 6.05074 0.860684 -0.796684 1.30677
41 1 12.9652 9.19555 6.09973 -1.01934 1.56829 0.865745
4 1 2.31103 9.82922 6.60303 -0.284706 -1.02196 1.62624
94 1 6.36953 9.05361 7.00043 -1.28407 -0.43605 2.05854
80 1 11.0724 10.3815 6.26652 -0.461433 0.528321 -1.77054
33 1 1.33476 12.6417 6.83935 0.0112669 -0.278079 -0.702909
47 1 13.0978 1.29644 7.65232 0.354328 -0.199253 -1.31741
79 1 3.67649 2.39772 8.12111 0.938531 1.63918 2.01307
15 1 8.69267 2.14894 7.9675 1.11171 0.883788 1.82421
38 1 12.6241 3.81547 7.60815 -0.47725 -0.548463 -1.20258
8 1 8.76186 5.49887 7.22847 -0.0825136 1.3726 -1.488
23 1 2.73478 7.25999 7.52301 -0.109961 2.20461 0.10881
72 1 6.3363 6.93273 7.33917 -0.128057 0.8699 -1.72538
75 1 4.00208 7.81856 7.1792 1.05312 -0.341413 -0.504443
6 1 5.09183 7.64629 7.37873 0.475917 -1.29448 -0.0489838
85 1 1.30818 10.4363 7.88262 -0.740541 0.166249 1.45045
19 1 7.60772 10.0797 7.08548 0.889585 -2.53808 -0.95414
50 1 7.99451 9.02502 8.51179 -2.05161 -1.5031 1.72122
89 1 5.55539 10.9824 8.67398 1.41823 1.62002 1.62212
31 1 6.94138 10.9693 7.27171 -0.750461 0.00917583 -0.697535
90 1 8.29218 12.8138 8.24965 0.072578 -1.96781 1.3349
76 1 1.7248 1.96307 8.76913 -0.604454 1.83379 0.604327
46 1 4.65194 2.48937 9.54716 0.0394963 0.325797 -1.91477
58 1 10.3667 1.92195 9.4374 1.59589 1.09244 -1.41928
5 1 4.01479 3.56952 0.379268 -0.663051 1.24251 1.98542
34 1 12.5992 3.47301 8.85858 0.394693 -1.7934 -0.604021
66 1 11.9312 5.90465 8.94226 -0.18013 1.94819 1.55029
1 1 12.3952 5.21221 9.73196 -2.31481 -0.642273 -0.705793
60 1 1.23091 7.40973 9.36119 0.944038 -0.32585 1.46569
39 1 6.56638 10.0188 8.31597 -1.8585 -1.56493 -1.86738
37 1 7.80178 8.81613 9.68771 0.126534 -1.43503 1.32152
36 1 11.5691 8.95984 9.26364 -0.39891 -1.1586 1.24427
82 1 9.94678 10.9796 9.43253 -0.125637 0.509097 -2.15729
27 1 11.3508 10.5468 9.37441 0.790964 -0.128247 0.0677967
51 1 12.2555 11.7616 9.02117 0.237852 1.94563 0.163192
18 1 9.28593 12.4622 9.59721 0.157623 -0.354854 -1.16429
84 1 10.9192 13.3679 9.57125 0.232557 1.00582 -1.77207
ITEM: TIMESTEP
50
ITEM: NUMBER OF ATOMS
100
ITEM: BOX BOUNDS ff ff pp
0.0000000000000000e+00 1.5000000000000000e+01
0.0000000000000000e+00 1.5000000000000000e+01
0.0000000000000000e+00 1.0000000000000000e+01
ITEM: ATOMS id type x y z vx vy vz
70 1 9.64034 2.06283 1.3673 1.16234 1.67055 -0.282818
78 1 6.73746 8.52828 1.60409 -1.39413 -0.456119 1.24441
71 1 4.24007 10.2343 0.663151 0.677907 0.151359 -2.48957
30 1 4.21252 11.1269 1.28905 -1.42287 0.0105017 0.416372
86 1 6.21729 12.3081 1.64506 -0.161466 -1.25027 1.34261
12 1 7.12768 2.10446 1.80076 0.630358 -0.540301 -1.85977
13 1 8.37388 2.19373 2.79383 0.71295 -0.2026 1.70988
93 1 9.70758 1.56888 2.34899 0.62494 -1.25793 1.34296
69 1 6.1628 3.15373 1.12937 -0.0898612 -2.09589 -1.26387
91 1 10.1829 2.99927 1.85081 1.7255 -1.39972 -1.85408
28 1 9.9828 5.47952 2.48245 1.01693 0.353376 0.494636
96 1 6.60596 6.25726 1.34595 0.214507 -0.345529 -0.805752
9 1 2.28266 7.63687 1.49381 -1.43485 -1.07492 -0.082486