LAMMPS (23 Jun 2022 - Update 1)
OMP_NUM_THREADS environment is not set. Defaulting to 1 thread. (src/comm.cpp:98)
  using 1 OpenMP thread(s) per MPI task
# 2d Lennard-Jones melt
# Usando unidades (units) Lennard-Jones (lj):

variable    natoms index 50
variable    xx     index 15
variable    yy     index 15
variable    zz     index 10

units	   lj
dimension  3
boundary   f f p # Delimitação de uma caixa fixa para o sistema.

atom_style	 atomic

neighbor	 0.3 bin # vizinhança.
neigh_modify delay 0 every 20 check yes

region		  box block 0 ${xx} 0 ${yy} 0 ${zz}  # Tamanho da caixa
region		  box block 0 15 0 ${yy} 0 ${zz}  
region		  box block 0 15 0 15 0 ${zz}  
region		  box block 0 15 0 15 0 10  
region		  inbox block 1 14 1 14 1 14         # Construção de uma caixa interna, para que não gere atomos na propria borda

create_box	  1 box
Created orthogonal box = (0 0 0) to (15 15 10)
  1 by 1 by 1 MPI processor grid
create_atoms 1 random ${natoms} 12345 inbox overlap 1.0 maxtry 100 # Criação de atomos dentro da caixa
create_atoms 1 random 100 12345 inbox overlap 1.0 maxtry 100 
Created 100 atoms
  using lattice units in orthogonal box = (0 0 0) to (15 15 10)
  create_atoms CPU = 0.000 seconds
                                                           # 50 atomos/ seed/ distancia minima que o gerador gera um dos outros atomos/ se tentar 50 vezes a geração de particula e não tiver espaço para gerar,pare!

mass		  1 1.0 # massa do atomo

# fix fix2d all enforce2d

velocity	all create 1.44 1234 # Velocidade inicial dos 50 atomos

pair_style	lj/cut 2.5
pair_coeff	1 1 1.0 1.0 2.5

thermo 100 # Passos de integração
thermo_style custom time pe ke etotal vol # Saída do sistema. Nesse caso: energia potencial, energia cinetica , energia total

# Paredes para representar uma caixa fechada
fix walls all wall/reflect xlo EDGE xhi EDGE ylo EDGE yhi EDGE units box # Parte parade de reflexão

fix		1 all nve # Integrador. Parte que resolve equação de Newton com 3 coisas conservadas( volume , numero de particulas e energia)

dump dump.nve all custom 10 dump.nve.lammpstrj id type  x y z vx vy vz # Mostra a trajetoria da particula

run		3100 # Rode a simulação por 3100 vezes o delta T escolido
Generated 0 of 0 mixed pair_coeff terms from geometric mixing rule
Neighbor list info ...
  update every 20 steps, delay 0 steps, check yes
  max neighbors/atom: 2000, page size: 100000
  master list distance cutoff = 2.8
  ghost atom cutoff = 2.8
  binsize = 1.4, bins = 11 11 8
  1 neighbor lists, perpetual/occasional/extra = 1 0 0
  (1) pair lj/cut, perpetual
      attributes: half, newton on
      pair build: half/bin/atomonly/newton
      stencil: half/bin/3d
      bin: standard
Per MPI rank memory allocation (min/avg/max) = 4.311 | 4.311 | 4.311 Mbytes
     Time          PotEng         KinEng         TotEng         Volume    
 0             -0.31224134     2.1384         1.8261587      2250         
 0.5           -0.2732246      2.0986938      1.8254692      2250         
 1             -0.29010022     2.1184736      1.8283734      2250         
 1.5           -0.26389615     2.0914282      1.827532       2250         
 2             -0.27179722     2.0976274      1.8258302      2250         
 2.5           -0.27799092     2.1063612      1.8283703      2250         
 3             -0.30222569     2.1325112      1.8302855      2250         
 3.5           -0.3084666      2.1366159      1.8281493      2250         
 4             -0.24351313     2.0721552      1.8286421      2250         
 4.5           -0.27723426     2.1065535      1.8293193      2250         
 5             -0.25986383     2.0892505      1.8293867      2250         
 5.5           -0.28351156     2.1115772      1.8280656      2250         
 6             -0.31018381     2.1390397      1.8288559      2250         
 6.5           -0.30428208     2.1307666      1.8264845      2250         
 7             -0.3053397      2.1324108      1.8270711      2250         
 7.5           -0.26383488     2.0899334      1.8260985      2250         
 8             -0.33662314     2.1631753      1.8265522      2250         
 8.5           -0.33144246     2.1590068      1.8275643      2250         
 9             -0.31311121     2.1429882      1.829877       2250         
 9.5           -0.29336747     2.1213905      1.828023       2250         
 10            -0.29903694     2.1259467      1.8269097      2250         
 10.5          -0.27918282     2.1084504      1.8292676      2250         
 11            -0.249664       2.0788919      1.829228       2250         
 11.5          -0.2912621      2.1217058      1.8304437      2250         
 12            -0.26497835     2.096087       1.8311087      2250         
 12.5          -0.25660925     2.0866175      1.8300082      2250         
 13            -0.22608388     2.055518       1.8294341      2250         
 13.5          -0.28498271     2.1165214      1.8315387      2250         
 14            -0.28583327     2.1183441      1.8325108      2250         
 14.5          -0.29847412     2.1276398      1.8291657      2250         
 15            -0.34194551     2.1700914      1.8281458      2250         
 15.5          -0.29610568     2.1242601      1.8281545      2250         
Loop time of 0.25854 on 1 procs for 3100 steps with 100 atoms

Performance: 5179858.599 tau/day, 11990.413 timesteps/s
74.6% CPU use with 1 MPI tasks x 1 OpenMP threads

MPI task timing breakdown:
Section |  min time  |  avg time  |  max time  |%varavg| %total
---------------------------------------------------------------
Pair    | 0.010508   | 0.010508   | 0.010508   |   0.0 |  4.06
Neigh   | 0.0052547  | 0.0052547  | 0.0052547  |   0.0 |  2.03
Comm    | 0.0036524  | 0.0036524  | 0.0036524  |   0.0 |  1.41
Output  | 0.22748    | 0.22748    | 0.22748    |   0.0 | 87.99
Modify  | 0.0074184  | 0.0074184  | 0.0074184  |   0.0 |  2.87
Other   |            | 0.004225   |            |       |  1.63

Nlocal:            100 ave         100 max         100 min
Histogram: 1 0 0 0 0 0 0 0 0 0
Nghost:             51 ave          51 max          51 min
Histogram: 1 0 0 0 0 0 0 0 0 0
Neighs:            181 ave         181 max         181 min
Histogram: 1 0 0 0 0 0 0 0 0 0

Total # of neighbors = 181
Ave neighs/atom = 1.81
Neighbor list builds = 155
Dangerous builds = 155

Total wall time: 0:00:00
