ITEM: TIMESTEP
0
ITEM: NUMBER OF ATOMS
50
ITEM: BOX BOUNDS pp pp pp
0.0000000000000000e+00 1.5000000000000000e+01
0.0000000000000000e+00 1.5000000000000000e+01
0.0000000000000000e+00 1.0000000000000000e+01
ITEM: ATOMS id type x y z vx vy vz
20 1 1.60488 1.22852 5 1.03866 2.29882 0
37 1 13.027 1.33629 5 0.141507 -1.52378 0
30 1 1.03414 2.78392 5 -1.46672 -0.581929 0
32 1 2.08453 2.62996 5 -0.457444 -0.111643 0
33 1 3.07148 2.43733 5 0.125853 -0.157385 0
36 1 4.63625 2.43404 5 -0.26462 -1.32223 0
10 1 7.00156 2.25935 5 2.07893 -0.526375 0
11 1 8.20124 2.26863 5 -0.657361 0.427414 0
46 1 9.3189 1.83614 5 -0.123133 1.01131 0
41 1 10.5565 1.79097 5 -0.902811 1.74698 0
44 1 2.23622 4.21491 5 1.65847 0.400494 0
4 1 4.15442 3.31118 5 -0.314791 -0.989843 0
12 1 6.62034 3.97811 5 0.415577 -0.609184 0
9 1 8.36915 3.26219 5 -1.41411 -1.04206 0
13 1 12.6164 3.27669 5 0.893363 -0.21935 0
16 1 3.74457 4.99771 5 0.977203 -0.0975927 0
18 1 5.7301 4.86329 5 0.186622 -0.205162 0
27 1 7.10073 4.9396 5 1.04204 -0.119623 0
7 1 8.78231 5.22999 5 -1.57384 0.112517 0
34 1 10.4159 5.08751 5 0.532971 -1.94036 0
1 1 12.8385 5.3524 5 -2.14497 -0.642994 0
43 1 1.04293 7.47478 5 -0.523474 -1.86363 0
19 1 2.78246 6.83497 5 -0.670677 0.0512528 0
48 1 6.34437 6.76924 5 2.25445 -0.794815 0
6 1 8.85902 7.48444 5 0.775018 -1.18693 0
45 1 11.3906 6.08687 5 0.152266 1.4709 0
8 1 2.6402 7.90806 5 -0.0115958 1.54363 0
49 1 3.78728 7.86988 5 -0.371988 -0.184877 0
5 1 4.99393 7.89773 5 -0.313863 0.927181 0
50 1 7.74213 7.97073 5 -1.80156 -1.52597 0
17 1 11.2801 8.05906 5 0.200762 0.332998 0
31 1 13.1697 8.88458 5 1.28773 -2.08612 0
3 1 2.37657 10.0356 5 -1.94709 1.18744 0
47 1 4.05813 10.0421 5 0.493472 -0.0833587 0
25 1 5.44809 10.0855 5 2.00115 0.875834 0
39 1 6.38551 9.20528 5 -1.89707 -1.74075 0
15 1 7.64094 10.2754 5 1.2898 0.831955 0
29 1 7.78551 9.11305 5 -0.287765 1.81448 0
28 1 11.6452 9.20971 5 1.00681 0.556741 0
23 1 4.58418 11.2789 5 -0.263319 2.30609 0
24 1 6.85436 11.2415 5 -2.16002 1.88734 0
42 1 10.349 11.6387 5 -1.1043 -1.33739 0
21 1 11.1828 10.5819 5 -0.629952 0.55906 0
38 1 12.1891 11.3546 5 -0.396422 -0.465901 0
26 1 1.33252 12.6964 5 -1.61381 -1.31952 0
35 1 5.27884 12.485 5 -0.273603 -1.83421 0
40 1 7.92649 12.5601 5 0.252152 2.25004 0
14 1 9.2623 12.528 5 1.58612 1.76618 0
2 1 13.3425 13.1012 5 2.25341 -0.108861 0
22 1 10.9385 13.7272 5 0.941955 0.263195 0
ITEM: TIMESTEP
10
ITEM: NUMBER OF ATOMS
50
ITEM: BOX BOUNDS pp pp pp
0.0000000000000000e+00 1.5000000000000000e+01
0.0000000000000000e+00 1.5000000000000000e+01
0.0000000000000000e+00 1.0000000000000000e+01
ITEM: ATOMS id type x y z vx vy vz
20 1 1.65734 1.34627 5 1.0609 2.41986 0
37 1 13.034 1.26032 5 0.139799 -1.5152 0
30 1 0.956114 2.75495 5 -1.61666 -0.584732 0
32 1 2.04702 2.62669 5 -0.933984 -0.0500121 0
33 1 3.09983 2.42709 5 0.86342 -0.222328 0
36 1 4.63305 2.34761 5 0.0583935 -1.99448 0
10 1 7.10719 2.23404 5 2.07675 -0.485191 0
11 1 8.16437 2.25463 5 -0.74433 -1.02256 0
46 1 9.31261 1.88816 5 -0.131906 1.06921 0
41 1 10.5083 1.87841 5 -1.02129 1.75007 0
44 1 2.31972 4.23375 5 1.68238 0.355429 0
4 1 4.12546 3.28126 5 -0.768576 -0.348877 0
12 1 6.63798 3.9459 5 0.306719 -0.648997 0
9 1 8.30326 3.24397 5 -1.22411 0.348454 0
13 1 12.6611 3.26567 5 0.89557 -0.220785 0
16 1 3.79309 4.99208 5 0.963023 -0.128242 0
18 1 5.74347 4.85121 5 0.345721 -0.27796 0
27 1 7.153 4.93689 5 1.03844 -0.0181641 0
7 1 8.7035 5.23528 5 -1.58314 0.0985014 0
34 1 10.4432 4.99195 5 0.555301 -1.88493 0
1 1 12.7303 5.32053 5 -2.1828 -0.630877 0
43 1 1.01783 7.38168 5 -0.481638 -1.86044 0
19 1 2.75014 6.83723 5 -0.627309 0.0784068 0
48 1 6.45714 6.72973 5 2.25912 -0.785322 0
6 1 8.89497 7.42632 5 0.66535 -1.14037 0
45 1 11.3977 6.15884 5 0.139529 1.41011 0
8 1 2.64 7.98669 5 0.00566801 1.56201 0
49 1 3.76907 7.85965 5 -0.352551 -0.222814 0
5 1 4.97587 7.9441 5 -0.408568 0.928733 0
50 1 7.65424 7.89578 5 -1.71616 -1.46471 0
17 1 11.2911 8.07826 5 0.243081 0.434971 0
31 1 13.2329 8.78046 5 1.23974 -2.0784 0
3 1 2.27986 10.0948 5 -1.92326 1.18151 0
47 1 4.08509 10.0399 5 0.580662 -0.00806919 0
25 1 5.54786 10.1285 5 1.99452 0.838508 0
39 1 6.29103 9.12031 5 -1.88652 -1.65684 0
15 1 7.70319 10.3172 5 1.20318 0.852985 0
29 1 7.76898 9.20281 5 -0.370198 1.74895 0
28 1 11.6952 9.23626 5 0.989401 0.503234 0
23 1 4.57242 11.3932 5 -0.202088 2.27612 0
24 1 6.74786 11.3339 5 -2.10623 1.81044 0
42 1 10.2943 11.5712 5 -1.0792 -1.36134 0
21 1 11.1525 10.6121 5 -0.580376 0.649546 0
38 1 12.1666 11.3296 5 -0.504137 -0.534856 0
26 1 1.25183 12.6304 5 -1.61381 -1.31952 0
35 1 5.26405 12.3909 5 -0.321157 -1.93605 0
40 1 7.9411 12.672 5 0.329762 2.22665 0
14 1 9.3409 12.6152 5 1.55957 1.71777 0
2 1 13.455 13.0957 5 2.24964 -0.113472 0
22 1 10.9854 13.7401 5 0.934346 0.254065 0
ITEM: TIMESTEP
20
ITEM: NUMBER OF ATOMS
50
ITEM: BOX BOUNDS pp pp pp
0.0000000000000000e+00 1.5000000000000000e+01
0.0000000000000000e+00 1.5000000000000000e+01
0.0000000000000000e+00 1.0000000000000000e+01
ITEM: ATOMS id type x y z vx vy vz
20 1 1.711 1.4713 5 1.08367 2.58464 0
37 1 13.041 1.18474 5 0.138558 -1.50807 0
30 1 0.874919 2.72492 5 -1.6125 -0.620227 0
32 1 1.99888 2.62261 5 -0.955682 -0.123342 0
33 1 3.1479 2.4172 5 1.00885 -0.162493 0
36 1 4.63617 2.24523 5 0.0345796 -2.04482 0
10 1 7.18737 2.21104 5 0.76414 -0.421283 0
11 1 8.15195 2.18426 5 0.641455 -1.60682 0
46 1 9.30524 1.94294 5 -0.169491 1.11973 0
41 1 10.4548 1.96593 5 -1.11321 1.75004 0
44 1 2.40458 4.25062 5 1.71364 0.320963 0
4 1 4.08312 3.2655 5 -0.89668 -0.338809 0
12 1 6.65224 3.9153 5 0.272566 -0.561345 0
9 1 8.24344 3.27917 5 -1.19947 0.864204 0
13 1 12.7059 3.25464 5 0.896777 -0.220117 0
16 1 3.8408 4.98482 5 0.944455 -0.162702 0
18 1 5.76447 4.8355 5 0.492307 -0.350399 0
27 1 7.204 4.93576 5 0.999878 -0.0398744 0
7 1 8.62349 5.23977 5 -1.62313 0.0799691 0
34 1 10.4713 4.89875 5 0.569581 -1.8454 0
1 1 12.6201 5.28942 5 -2.22537 -0.612362 0
43 1 0.994678 7.28873 5 -0.444977 -1.85766 0
19 1 2.71953 6.84475 5 -0.598036 0.229888 0
48 1 6.57058 6.69086 5 2.2826 -0.766487 0
6 1 8.92595 7.37011 5 0.578191 -1.11063 0
45 1 11.4049 6.22806 5 0.149905 1.35993 0
8 1 2.64079 8.06234 5 0.0259255 1.4565 0
49 1 3.7523 7.84771 5 -0.317155 -0.253908 0
5 1 4.95313 7.99072 5 -0.499149 0.937216 0
50 1 7.56994 7.82371 5 -1.66328 -1.42748 0
17 1 11.3044 8.10254 5 0.289552 0.535809 0
31 1 13.2938 8.67676 5 1.19947 -2.06945 0
3 1 2.18411 10.1537 5 -1.90774 1.17525 0
47 1 4.11584 10.0409 5 0.645991 0.0443002 0
25 1 5.64786 10.169 5 2.00758 0.781562 0
39 1 6.1965 9.03965 5 -1.8979 -1.56932 0
15 1 7.76167 10.3628 5 1.14145 1.00156 0
29 1 7.74887 9.28586 5 -0.43151 1.54905 0
28 1 11.744 9.25987 5 0.960642 0.439896 0
23 1 4.563 11.5056 5 -0.233316 2.15298 0
24 1 6.643 11.423 5 -2.09627 1.75891 0
42 1 10.2415 11.5025 5 -1.02997 -1.38664 0
21 1 11.1245 10.647 5 -0.542218 0.747218 0
38 1 12.1387 11.3011 5 -0.613262 -0.602133 0
26 1 1.17114 12.5645 5 -1.61381 -1.31952 0
35 1 5.24791 12.2928 5 -0.262944 -1.91409 0
40 1 7.95924 12.7829 5 0.393488 2.20877 0
14 1 9.41838 12.6998 5 1.54012 1.66859 0
2 1 13.5675 13.0899 5 2.24708 -0.116839 0
22 1 11.0319 13.7526 5 0.92463 0.245229 0
ITEM: TIMESTEP
30
ITEM: NUMBER OF ATOMS
50
ITEM: BOX BOUNDS pp pp pp
0.0000000000000000e+00 1.5000000000000000e+01
0.0000000000000000e+00 1.5000000000000000e+01
0.0000000000000000e+00 1.0000000000000000e+01
ITEM: ATOMS id type x y z vx vy vz
20 1 1.76489 1.60201 5 1.04823 2.53193 0
37 1 13.0479 1.10949 5 0.137664 -1.50214 0
30 1 0.796317 2.69268 5 -1.51978 -0.670597 0
32 1 1.95303 2.61686 5 -0.860445 0.0051812 0
33 1 3.19864 2.4112 5 1.01334 -0.0794073 0
36 1 4.63516 2.14543 5 -0.079183 -1.94 0
10 1 7.18198 2.19344 5 -0.617591 -0.289009 0
11 1 8.22976 2.10232 5 2.05613 -1.62426 0
46 1 9.2958 1.99968 5 -0.176384 1.14152 0
41 1 10.3983 2.05342 5 -1.12448 1.75033 0
44 1 2.49124 4.266 5 1.75441 0.29553 0
4 1 4.03696 3.24507 5 -0.944427 -0.482672 0
12 1 6.66586 3.89056 5 0.277135 -0.423933 0
9 1 8.1821 3.32104 5 -1.25547 0.78008 0
13 1 12.7508 3.24369 5 0.897012 -0.217932 0
16 1 3.88744 4.97573 5 0.920033 -0.201548 0
18 1 5.79257 4.81616 5 0.630507 -0.423639 0
27 1 7.25318 4.93222 5 0.971587 -0.10462 0
7 1 8.54053 5.24316 5 -1.7025 0.0540959 0
34 1 10.5001 4.80721 5 0.580441 -1.81799 0
1 1 12.5077 5.25941 5 -2.27139 -0.586862 0
43 1 0.973275 7.1959 5 -0.411494 -1.85564 0
19 1 2.69035 6.8605 5 -0.568645 0.400198 0
48 1 6.68581 6.65344 5 2.33044 -0.725385 0
6 1 8.95319 7.31502 5 0.514598 -1.09485 0
45 1 11.4129 6.29494 5 0.173999 1.31608 0
8 1 2.64263 8.13206 5 0.0485382 1.33201 0
49 1 3.73733 7.83438 5 -0.283205 -0.27816 0
5 1 4.92618 8.03797 5 -0.57579 0.954753 0
50 1 7.48716 7.75211 5 -1.65554 -1.44577 0
17 1 11.3202 8.13179 5 0.339748 0.633513 0
31 1 13.353 8.57352 5 1.16629 -2.0603 0
3 1 2.089 10.2123 5 -1.89734 1.16925 0
47 1 4.14945 10.0441 5 0.696587 0.0814088 0
25 1 5.74873 10.2066 5 2.02721 0.722757 0
39 1 6.10097 8.96327 5 -1.92607 -1.48882 0
15 1 7.81793 10.4196 5 1.11539 1.27752 0
29 1 7.72586 9.35579 5 -0.490166 1.24213 0
28 1 11.7911 9.28014 5 0.923438 0.369828 0
23 1 4.52922 11.5889 5 -1.40845 0.946967 0
24 1 6.53744 11.51 5 -2.13472 1.72455 0
42 1 10.1916 11.4327 5 -0.967445 -1.40577 0
21 1 11.0981 10.6865 5 -0.5169 0.828372 0
38 1 12.1055 11.2695 5 -0.710562 -0.658939 0
26 1 1.09045 12.4985 5 -1.61406 -1.31954 0
35 1 5.25801 12.2192 5 0.962692 -0.798495 0
40 1 7.98026 12.893 5 0.445547 2.19487 0
14 1 9.49495 12.7821 5 1.52292 1.62665 0
2 1 13.6798 13.084 5 2.24541 -0.119259 0
22 1 11.0779 13.7647 5 0.912755 0.236003 0
ITEM: TIMESTEP
40
ITEM: NUMBER OF ATOMS
50
ITEM: BOX BOUNDS pp pp pp
0.0000000000000000e+00 1.5000000000000000e+01
0.0000000000000000e+00 1.5000000000000000e+01
0.0000000000000000e+00 1.0000000000000000e+01
ITEM: ATOMS id type x y z vx vy vz
20 1 1.81143 1.69491 5 0.783317 0.836443 0
37 1 13.0547 1.03451 5 0.137028 -1.4972 0
30 1 0.72381 2.65784 5 -1.37457 -0.721681 0
32 1 1.91637 2.6527 5 -0.584773 1.77428 0
33 1 3.2484 2.40823 5 0.960096 -0.0634665 0
36 1 4.6281 2.05134 5 -0.203435 -1.82514 0
10 1 7.14876 2.18082 5 -0.634212 -0.2239 0
11 1 8.31881 2.02443 5 1.16024 -1.49964 0
46 1 9.29971 2.05633 5 0.541014 1.13115 0
41 1 10.3456 2.14116 5 -0.927544 1.76426 0
44 1 2.58022 4.28028 5 1.80699 0.276153 0
4 1 3.98959 3.21813 5 -0.930703 -0.569607 0
12 1 6.68033 3.87311 5 0.304886 -0.27338 0
9 1 8.11792 3.35665 5 -1.31238 0.650508 0
13 1 12.7956 3.23286 5 0.89636 -0.21485 0
16 1 3.93267 4.9646 5 0.887685 -0.244659 0
18 1 5.82745 4.79311 5 0.764186 -0.498791 0
27 1 7.30157 4.9252 5 0.964767 -0.177079 0
7 1 8.45266 5.24501 5 -1.81379 0.0193006 0
34 1 10.5293 4.71683 5 0.591605 -1.79839 0
1 1 12.3929 5.23084 5 -2.31953 -0.554755 0
43 1 0.953504 7.10316 5 -0.379497 -1.85405 0
19 1 2.66273 6.88468 5 -0.535328 0.565969 0
48 1 6.80395 6.61887 5 2.39657 -0.653667 0
6 1 8.97768 7.26047 5 0.46746 -1.08863 0
45 1 11.4224 6.35971 5 0.204485 1.27495 0
8 1 2.64584 8.19557 5 0.082327 1.20885 0
49 1 3.7237 7.82005 5 -0.26536 -0.29302 0
5 1 4.89595 8.0864 5 -0.628247 0.984858 0
50 1 7.4038 7.67829 5 -1.68218 -1.51343 0
17 1 11.3385 8.16584 5 0.394081 0.727954 0
31 1 13.4106 8.47072 5 1.13926 -2.05161 0
3 1 1.9943 10.2707 5 -1.89098 1.16577 0
47 1 4.18533 10.049 5 0.737379 0.113995 0
25 1 5.85051 10.2416 5 2.04297 0.679974 0
39 1 6.00361 8.89038 5 -1.972 -1.43233 0
15 1 7.87361 10.4895 5 1.11296 1.48924 0
29 1 7.69985 9.4114 5 -0.547906 1.01088 0
28 1 11.8362 9.29678 5 0.879925 0.295098 0
23 1 4.42918 11.611 5 -2.28873 0.197127 0
24 1 6.42857 11.5958 5 -2.23028 1.70812 0
42 1 10.1443 11.3624 5 -0.932323 -1.39821 0
21 1 11.0726 10.7288 5 -0.506504 0.84545 0
38 1 12.0684 11.2357 5 -0.75753 -0.685817 0
26 1 1.00971 12.4325 5 -1.61566 -1.321 0
35 1 5.33788 12.202 5 1.93675 -0.15387 0
40 1 8.00364 13.0024 5 0.488309 2.18468 0
14 1 9.57069 12.8627 5 1.50746 1.59712 0
2 1 13.7921 13.078 5 2.24671 -0.121364 0
22 1 11.1232 13.7762 5 0.898643 0.227408 0
ITEM: TIMESTEP
50
ITEM: NUMBER OF ATOMS
50
ITEM: BOX BOUNDS pp pp pp
0.0000000000000000e+00 1.5000000000000000e+01
0.0000000000000000e+00 1.5000000000000000e+01
0.0000000000000000e+00 1.0000000000000000e+01
ITEM: ATOMS id type x y z vx vy vz
20 1 1.84673 1.70038 5 0.672835 -0.230196 0
37 1 13.0616 0.95976 5 0.136584 -1.49309 0
30 1 0.659171 2.62082 5 -1.21034 -0.75496 0
32 1 1.89032 2.77926 5 -0.506297 2.89647 0
33 1 3.2911 2.40005 5 0.690405 -0.342458 0
36 1 4.61485 1.96276 5 -0.326121 -1.7198 0
10 1 7.1206 2.17075 5 -0.489818 -0.17972 0
11 1 8.33453 1.94921 5 -0.341381 -1.52403 0
46 1 9.34607 2.11421 5 0.886427 1.16289 0
41 1 10.3185 2.23127 5 0.0826463 1.87142 0
44 1 2.67216 4.29362 5 1.87295 0.257307 0
4 1 3.94777 3.19314 5 -0.680882 -0.348708 0
12 1 6.69671 3.8632 5 0.35424 -0.123822 0
9 1 8.05061 3.38696 5 -1.38433 0.570807 0
13 1 12.8404 3.22221 5 0.894986 -0.21146 0
16 1 3.97604 4.95119 5 0.844769 -0.292519 0
18 1 5.86894 4.76626 5 0.895219 -0.575178 0
27 1 7.34794 4.91397 5 0.830783 -0.291205 0
7 1 8.36078 5.24555 5 -1.80294 0.0207845 0
34 1 10.5593 4.62729 5 0.606076 -1.78395 0
1 1 12.2757 5.20401 5 -2.36899 -0.5178 0
43 1 0.935317 7.0105 5 -0.348024 -1.85224 0
19 1 2.6369 6.91698 5 -0.496554 0.724796 0
48 1 6.92494 6.58722 5 2.42623 -0.649867 0
6 1 9.00014 7.20603 5 0.43261 -1.0896 0
45 1 11.4334 6.42245 5 0.235933 1.23478 0
8 1 2.6511 8.25296 5 0.130643 1.0862 0
49 1 3.71046 7.80528 5 -0.267925 -0.295331 0
5 1 4.86388 8.13669 5 -0.650461 1.02836 0
50 1 7.31933 7.6014 5 -1.68069 -1.52655 0
17 1 11.3596 8.20451 5 0.450504 0.818067 0
31 1 13.467 8.36834 5 1.11739 -2.0437 0
3 1 1.89986 10.3289 5 -1.88702 1.16375 0
47 1 4.22305 10.0555 5 0.770073 0.146906 0
25 1 5.95289 10.2751 5 2.05095 0.666946 0
39 1 5.90332 8.81934 5 -2.04366 -1.41609 0
15 1 7.92907 10.5656 5 1.10209 1.53158 0
29 1 7.67147 9.45995 5 -0.582221 0.958381 0
28 1 11.879 9.30962 5 0.831751 0.218387 0
23 1 4.31529 11.6197 5 -2.23101 0.173295 0
24 1 6.31573 11.68 5 -2.16644 1.59257 0
42 1 10.0967 11.2938 5 -0.99362 -1.33411 0
21 1 11.047 10.769 5 -0.525785 0.737695 0
38 1 12.0318 11.2019 5 -0.675245 -0.652964 0
26 1 0.928865 12.3664 5 -1.61845 -1.32267 0
35 1 5.43538 12.1935 5 1.81073 -0.142185 0
40 1 8.02897 13.1115 5 0.523693 2.17747 0
14 1 9.64576 12.9421 5 1.49599 1.58087 0
2 1 13.9045 13.0719 5 2.25091 -0.122713 0
22 1 11.1677 13.7874 5 0.880773 0.217198 0
ITEM: TIMESTEP
60
ITEM: NUMBER OF ATOMS
50
ITEM: BOX BOUNDS pp pp pp
0.0000000000000000e+00 1.5000000000000000e+01
0.0000000000000000e+00 1.5000000000000000e+01
0.0000000000000000e+00 1.0000000000000000e+01
ITEM: ATOMS id type x y z vx vy vz
20 1 1.88016 1.68991 5 0.666397 -0.143921 0
37 1 13.0684 0.885194 5 0.13628 -1.48966 0
30 1 0.602634 2.58278 5 -1.05456 -0.762772 0
32 1 1.86411 2.92396 5 -0.543203 2.84396 0
33 1 3.313 2.36709 5 0.190029 -0.987807 0
36 1 4.59557 1.87919 5 -0.444253 -1.62453 0
10 1 7.09978 2.16276 5 -0.343557 -0.140759 0
11 1 8.30367 1.87297 5 -0.790918 -1.51254 0
46 1 9.35785 2.169 5 -0.330928 1.02938 0
41 1 10.3654 2.33059 5 1.60632 2.08519 0
44 1 2.76773 4.30594 5 1.9523 0.234779 0
4 1 3.92619 3.1904 5 -0.185633 0.254005 0
12 1 6.71626 3.86052 5 0.434216 0.012472 0
9 1 7.97899 3.41454 5 -1.48649 0.540363 0
13 1 12.8851 3.21171 5 0.893119 -0.208245 0
16 1 4.01692 4.93523 5 0.787943 -0.34739 0
18 1 5.91695 4.73568 5 1.02548 -0.645525 0
27 1 7.36999 4.89073 5 -0.1705 -0.72911 0
7 1 8.2869 5.2524 5 -0.932708 0.343752 0
34 1 10.5901 4.5384 5 0.626895 -1.77186 0
1 1 12.156 5.17908 5 -2.4202 -0.479527 0
43 1 0.918696 6.91795 5 -0.316933 -1.84954 0
19 1 2.6132 6.95709 5 -0.450124 0.879218 0
48 1 7.04373 6.54411 5 2.2997 -1.23024 0
6 1 9.02105 7.15145 5 0.404243 -1.09415 0
45 1 11.4459 6.4832 5 0.26448 1.19556 0
8 1 2.65909 8.30414 5 0.190523 0.960372 0
49 1 3.69659 7.79073 5 -0.289846 -0.284805 0
5 1 4.83075 8.18896 5 -0.691072 1.05032 0
50 1 7.23853 7.53519 5 -1.52557 -0.96861 0
17 1 11.3835 8.24753 5 0.507153 0.900921 0
31 1 13.5224 8.26634 5 1.09972 -2.03667 0
3 1 1.80557 10.3871 5 -1.88504 1.1637 0
47 1 4.26222 10.0636 5 0.795349 0.177906 0
25 1 6.05555 10.3088 5 2.05578 0.684344 0
39 1 5.79941 8.74853 5 -2.09606 -1.40877 0
15 1 7.98347 10.6409 5 1.07056 1.4671 0
29 1 7.64206 9.50911 5 -0.590535 1.02 0
28 1 11.9193 9.31866 5 0.781168 0.144751 0
23 1 4.20646 11.6284 5 -2.12699 0.169852 0
24 1 6.26414 11.7236 5 0.679037 -0.210564 0
42 1 10.0426 11.2299 5 -1.18989 -1.21843 0
21 1 11.019 10.8003 5 -0.603755 0.501555 0
38 1 12.0042 11.1716 5 -0.397733 -0.549674 0
26 1 0.847832 12.3002 5 -1.62329 -1.32429 0
35 1 5.46647 12.2191 5 -1.13717 1.53276 0
40 1 8.05591 13.2202 5 0.553083 2.17156 0
14 1 9.72041 13.0209 5 1.49126 1.57598 0
2 1 14.0172 13.0657 5 2.25785 -0.125386 0
22 1 11.2112 13.7979 5 0.858062 0.204986 0
ITEM: TIMESTEP
70
ITEM: NUMBER OF ATOMS
50
ITEM: BOX BOUNDS pp pp pp
0.0000000000000000e+00 1.5000000000000000e+01
0.0000000000000000e+00 1.5000000000000000e+01
0.0000000000000000e+00 1.0000000000000000e+01
ITEM: ATOMS id type x y z vx vy vz
20 1 1.91351 1.68663 5 0.66954 0.00680044 0
37 1 13.0752 0.810785 5 0.136079 -1.48679 0
30 1 0.553274 2.54481 5 -0.924997 -0.754333 0
32 1 1.83617 3.06284 5 -0.571456 2.7166 0
33 1 3.31536 2.30692 5 -0.0309382 -1.33838 0
36 1 4.57053 1.80012 5 -0.556347 -1.54011 0
10 1 7.0862 2.15661 5 -0.200138 -0.106015 0
11 1 8.26035 1.79883 5 -0.915244 -1.44601 0
46 1 9.33207 2.21932 5 -0.587564 0.997696 0
41 1 10.4553 2.43658 5 1.85054 2.13197 0
44 1 2.86768 4.31706 5 2.04926 0.209884 0
4 1 3.92397 3.21318 5 0.0314451 0.579523 0
12 1 6.74076 3.86362 5 0.549342 0.0924329 0
9 1 7.9014 3.44166 5 -1.62165 0.550262 0
13 1 12.9297 3.20137 5 0.891013 -0.205526 0
16 1 4.05455 4.91626 5 0.713944 -0.414196 0
18 1 5.97142 4.70214 5 1.15136 -0.687997 0
27 1 7.32679 4.83834 5 -1.35736 -1.28595 0
7 1 8.27143 5.28293 5 0.115253 0.808707 0
34 1 10.6221 4.45013 5 0.657742 -1.75841 0
1 1 12.0337 5.15599 5 -2.47529 -0.445602 0
43 1 0.903608 6.82557 5 -0.286827 -1.84541 0
19 1 2.59206 7.0049 5 -0.393567 1.03362 0
48 1 7.15616 6.45829 5 2.23503 -2.09684 0
6 1 9.04063 7.09656 5 0.380062 -1.10218 0
45 1 11.4598 6.54204 5 0.286597 1.15883 0
8 1 2.67025 8.3489 5 0.256118 0.828808 0
49 1 3.68123 7.77699 5 -0.327092 -0.262944 0
5 1 4.78857 8.23823 5 -1.13682 0.850343 0
50 1 7.16556 7.51015 5 -1.42955 -0.142763 0
17 1 11.4102 8.29434 5 0.558528 0.967144 0
31 1 13.577 8.16466 5 1.08548 -2.03052 0
3 1 1.71129 10.4453 5 -1.88645 1.16644 0
47 1 4.30251 10.0732 5 0.81541 0.203733 0
25 1 6.15867 10.344 5 2.07273 0.731985 0
39 1 5.69986 8.68153 5 -1.74619 -1.20542 0
15 1 8.03587 10.7118 5 1.02325 1.36614 0
29 1 7.61261 9.56268 5 -0.586692 1.12721 0
28 1 11.9572 9.32432 5 0.733778 0.0851921 0
23 1 4.10222 11.6366 5 -2.04501 0.159236 0
24 1 6.33237 11.6893 5 1.55254 -0.852093 0
42 1 9.97671 11.1719 5 -1.4459 -1.10567 0
21 1 10.9863 10.819 5 -0.699141 0.254893 0
38 1 11.9934 11.1471 5 -0.0443979 -0.438014 0
26 1 0.766478 12.234 5 -1.6316 -1.32516 0
35 1 5.37337 12.3163 5 -2.08639 2.04287 0
40 1 8.08419 13.3286 5 0.577462 2.16631 0
14 1 9.79503 13.0998 5 1.49563 1.57999 0
2 1 14.1303 13.0593 5 2.26936 -0.130716 0
22 1 11.2534 13.8078 5 0.829114 0.190432 0
ITEM: TIMESTEP
80
ITEM: NUMBER OF ATOMS
50
ITEM: BOX BOUNDS pp pp pp
0.0000000000000000e+00 1.5000000000000000e+01
0.0000000000000000e+00 1.5000000000000000e+01
0.0000000000000000e+00 1.0000000000000000e+01
ITEM: ATOMS id type x y z vx vy vz
20 1 1.94736 1.68991 5 0.687243 0.11825 0
37 1 13.082 0.736507 5 0.135953 -1.48438 0
30 1 0.509632 2.50744 5 -0.825623 -0.740103 0
32 1 1.80724 3.19629 5 -0.583079 2.62783 0
33 1 3.31394 2.2386 5 -0.0063655 -1.36701 0
36 1 4.53998 1.72503 5 -0.665328 -1.46496 0
10 1 7.07969 2.15211 5 -0.0614421 -0.0741212 0
11 1 8.21373 1.72895 5 -0.940888 -1.34502 0
46 1 9.30264 2.26903 5 -0.587394 0.987839 0
41 1 10.5454 2.54295 5 1.74661 2.12198 0
44 1 2.97303 4.32689 5 2.16859 0.182492 0
4 1 3.92516 3.24334 5 -0.00534711 0.603154 0
12 1 6.76968 3.86453 5 0.550803 -0.172032 0
9 1 7.81698 3.4699 5 -1.73848 0.576902 0
13 1 12.9742 3.19115 5 0.888894 -0.203452 0
16 1 4.088 4.89358 5 0.621389 -0.495126 0
18 1 6.03152 4.66821 5 1.23931 -0.649211 0
27 1 7.25358 4.77341 5 -1.43464 -1.17038 0
7 1 8.28074 5.32622 5 0.169604 0.887526 0
34 1 10.6561 4.36261 5 0.704324 -1.74157 0
1 1 11.9084 5.13432 5 -2.53787 -0.424088 0
43 1 0.889978 6.73343 5 -0.258826 -1.83974 0
19 1 2.57409 7.06051 5 -0.322045 1.19183 0
48 1 7.269 6.34743 5 2.27957 -2.26116 0
6 1 9.05908 7.04116 5 0.357547 -1.11474 0
45 1 11.4745 6.59915 5 0.301208 1.12654 0
8 1 2.6847 8.38691 5 0.321238 0.690388 0
49 1 3.66352 7.76449 5 -0.388988 -0.23911 0
5 1 4.70158 8.26757 5 -2.36285 0.331169 0
50 1 7.09401 7.50748 5 -1.43027 -0.0459701 0
17 1 11.4391 8.34359 5 0.590511 0.993255 0
31 1 13.631 8.06327 5 1.07402 -2.02517 0
3 1 1.61689 10.5038 5 -1.89004 1.17269 0
47 1 4.34365 10.0839 5 0.82901 0.221729 0
25 1 6.26323 10.3824 5 2.11451 0.806276 0
39 1 5.64037 8.63418 5 -0.608164 -0.695621 0
15 1 8.08565 10.7774 5 0.967219 1.26074 0
29 1 7.58333 9.62212 5 -0.586319 1.25246 0
28 1 11.993 9.32781 5 0.703869 0.0642184 0
23 1 4.00176 11.6443 5 -1.97585 0.150857 0
24 1 6.40776 11.6454 5 1.46217 -0.907255 0
42 1 9.89923 11.1185 5 -1.6339 -1.0411 0
21 1 10.9503 10.8277 5 -0.728901 0.113235 0
38 1 11.9974 11.1268 5 0.170899 -0.38703 0
26 1 0.68458 12.1677 5 -1.64552 -1.32364 0
35 1 5.26972 12.416 5 -2.05563 1.94605 0
40 1 8.11359 13.4368 5 0.597766 2.16159 0
14 1 9.87015 13.1791 5 1.51125 1.59114 0
2 1 14.2442 13.0525 5 2.28821 -0.141303 0
22 1 11.2939 13.8169 5 0.79204 0.173152 0
ITEM: TIMESTEP
90
ITEM: NUMBER OF ATOMS
50
ITEM: BOX BOUNDS pp pp pp
0.0000000000000000e+00 1.5000000000000000e+01
0.0000000000000000e+00 1.5000000000000000e+01
0.0000000000000000e+00 1.0000000000000000e+01
ITEM: ATOMS id type x y z vx vy vz
20 1 1.98255 1.69798 5 0.723871 0.200817 0
37 1 13.0888 0.662334 5 0.1359 -1.48303 0
30 1 0.470278 2.47079 5 -0.752452 -0.726257 0
32 1 1.77809 3.32615 5 -0.581213 2.57062 0
33 1 3.31549 2.17131 5 0.0696961 -1.32251 0
36 1 4.50397 1.65354 5 -0.775548 -1.39513 0
10 1 7.0799 2.14921 5 0.0675197 -0.041244 0
11 1 8.16662 1.66454 5 -0.942569 -1.23074 0
46 1 9.27296 2.31786 5 -0.604426 0.963156 0
41 1 10.6302 2.649 5 1.64979 2.12418 0
44 1 3.08469 4.33508 5 2.29398 0.139003 0
4 1 3.92243 3.27279 5 -0.107756 0.577149 0
12 1 6.78347 3.83044 5 -0.185306 -1.2689 0
9 1 7.73411 3.49726 5 -1.41447 0.46281 0
13 1 13.0185 3.18101 5 0.885176 -0.20178 0
16 1 4.11667 4.86665 5 0.530805 -0.580314 0
18 1 6.09269 4.6395 5 1.16106 -0.478431 0
27 1 7.19463 4.73875 5 -0.846975 -0.0994469 0
7 1 8.28513 5.37086 5 -0.00365422 0.901817 0
34 1 10.6928 4.27601 5 0.76666 -1.72186 0
1 1 11.7797 5.11321 5 -2.6113 -0.424938 0
43 1 0.877663 6.64161 5 -0.234799 -1.8334 0
19 1 2.56014 7.12417 5 -0.232949 1.35574 0
48 1 7.38417 6.2343 5 2.3304 -2.27076 0
6 1 9.07636 6.98499 5 0.333394 -1.13306 0
45 1 11.4898 6.6548 5 0.309265 1.10078 0
8 1 2.70227 8.41785 5 0.380125 0.546951 0
49 1 3.6402 7.75206 5 -0.591989 -0.285383 0
5 1 4.56835 8.27909 5 -2.76044 0.218142 0
50 1 7.02294 7.50274 5 -1.41087 -0.144371 0
17 1 11.4685 8.39228 5 0.57506 0.935557 0
31 1 13.6844 7.96213 5 1.06485 -2.02054 0
3 1 1.52224 10.5627 5 -1.89663 1.18384 0
47 1 4.38531 10.0952 5 0.836184 0.23099 0
25 1 6.37059 10.4247 5 2.18491 0.878369 0
39 1 5.62498 8.60513 5 -0.165085 -0.529385 0
15 1 8.13255 10.8379 5 0.908722 1.16111 0
29 1 7.55371 9.68812 5 -0.602275 1.39019 0
28 1 12.0283 9.33211 5 0.719722 0.126271 0
23 1 3.90447 11.6517 5 -1.91744 0.145203 0
24 1 6.47943 11.5979 5 1.4136 -0.99545 0
42 1 9.81532 11.067 5 -1.7036 -1.02421 0
21 1 10.9141 10.832 5 -0.714374 0.0728453 0
38 1 12.0076 11.1075 5 0.214815 -0.392735 0
26 1 0.601791 12.1017 5 -1.66761 -1.31647 0
35 1 5.16722 12.5114 5 -2.05029 1.8773 0
40 1 8.14393 13.5448 5 0.615541 2.15829 0
14 1 9.94639 13.259 5 1.54064 1.60835 0
2 1 14.3594 13.045 5 2.31807 -0.161863 0
22 1 11.3324 13.8251 5 0.744268 0.152728 0
ITEM: TIMESTEP
100
ITEM: NUMBER OF ATOMS
50
ITEM: BOX BOUNDS pp pp pp
0.0000000000000000e+00 1.5000000000000000e+01
0.0000000000000000e+00 1.5000000000000000e+01
0.0000000000000000e+00 1.0000000000000000e+01
ITEM: ATOMS id type x y z vx vy vz
20 1 2.02014 1.70973 5 0.784042 0.266732 0
37 1 13.0956 0.588176 5 0.135252 -1.4837 0
30 1 0.434053 2.43477 5 -0.69983 -0.715079 0
32 1 1.74925 3.45367 5 -0.571221 2.53302 0
33 1 3.32075 2.10616 5 0.13757 -1.28751 0
36 1 4.46234 1.58548 5 -0.890503 -1.32734 0
10 1 7.08613 2.14813 5 0.177978 0.000168615 0
11 1 8.1195 1.60581 5 -0.941579 -1.12034 0
46 1 9.24188 2.36523 5 -0.640788 0.931443 0
41 1 10.711 2.75592 5 1.5875 2.16032 0
44 1 3.20048 4.3394 5 2.28678 0.00380478 0
4 1 3.91424 3.30169 5 -0.219208 0.587237 0
12 1 6.73556 3.7518 5 -1.71747 -1.70424 0
9 1 7.69729 3.51 5 0.0178315 0.0471555 0
13 1 13.0627 3.17098 5 0.881478 -0.199854 0
16 1 4.1432 4.83653 5 0.582258 -0.598339 0
18 1 6.14066 4.62144 5 0.665974 -0.24003 0
27 1 7.16984 4.75464 5 -0.140716 0.560825 0
7 1 8.28109 5.41586 5 -0.0993038 0.847277 0
34 1 10.733 4.19033 5 0.842457 -1.70761 0
1 1 11.6471 5.09131 5 -2.69386 -0.456527 0
43 1 0.866421 6.5501 5 -0.215616 -1.82701 0
19 1 2.55098 7.19612 5 -0.135049 1.52079 0
48 1 7.50127 6.12012 5 2.29581 -2.25536 0
6 1 9.09235 6.92773 5 0.305018 -1.15884 0
45 1 11.5053 6.70941 5 0.31222 1.08499 0
8 1 2.72239 8.44167 5 0.419167 0.408907 0
49 1 3.59659 7.73076 5 -1.23099 -0.632393 0
5 1 4.4412 8.29706 5 -2.21272 0.570932 0
50 1 6.95286 7.49367 5 -1.39406 -0.21023 0
17 1 11.4953 8.43519 5 0.485688 0.762061 0
31 1 13.7375 7.86121 5 1.05758 -2.01657 0
3 1 1.42715 10.6223 5 -1.90837 1.20262 0
47 1 4.42719 10.1069 5 0.83849 0.233614 0
25 1 6.48216 10.4683 5 2.28054 0.816776 0
39 1 5.6162 8.57854 5 -0.211676 -0.541815 0
15 1 8.17658 10.8936 5 0.853669 1.06887 0
29 1 7.52266 9.76144 5 -0.643814 1.54586 0
28 1 12.0662 9.34244 5 0.807528 0.305866 0
23 1 3.80987 11.6589 5 -1.86759 0.142347 0
24 1 6.54989 11.5472 5 1.41226 -0.991955 0
42 1 9.73026 11.0156 5 -1.68971 -1.03197 0
21 1 10.8788 10.8357 5 -0.698544 0.0804636 0
38 1 12.0172 11.0871 5 0.15884 -0.426302 0
26 1 0.517657 12.0363 5 -1.69932 -1.29851 0
35 1 5.06434 12.6041 5 -2.06692 1.83303 0
40 1 8.1751 13.6527 5 0.630726 2.1558 0
14 1 10.0245 13.34 5 1.58702 1.63093 0
2 1 14.4763 13.0361 5 2.36219 -0.199788 0
22 1 11.3681 13.8322 5 0.683001 0.129452 0
ITEM: TIMESTEP
110
ITEM: NUMBER OF ATOMS
50
ITEM: BOX BOUNDS pp pp pp
0.0000000000000000e+00 1.5000000000000000e+01
0.0000000000000000e+00 1.5000000000000000e+01
0.0000000000000000e+00 1.0000000000000000e+01
ITEM: ATOMS id type x y z vx vy vz
20 1 2.0613 1.72445 5 0.865725 0.320492 0
37 1 13.1023 0.51395 5 0.133548 -1.4854 0
30 1 0.400026 2.39924 5 -0.663401 -0.706467 0
32 1 1.72103 3.57965 5 -0.557424 2.50744 0
33 1 3.32883 2.04219 5 0.179859 -1.27456 0
36 1 4.41493 1.52077 5 -1.00461 -1.26194 0
10 1 7.0972 2.14949 5 0.258217 0.0577543 0
11 1 8.07258 1.55224 5 -0.932922 -1.0264 0
46 1 9.20877 2.41104 5 -0.684444 0.902129 0
41 1 10.7894 2.866 5 1.55033 2.25225 0
44 1 3.30352 4.33015 5 1.70036 -0.440526 0
4 1 3.90082 3.33215 5 -0.31101 0.632119 0
12 1 6.63407 3.66296 5 -2.12315 -1.86175 0
9 1 7.71791 3.50838 5 0.588581 -0.0581612 0
13 1 13.1067 3.16101 5 0.879304 -0.199128 0
16 1 4.18467 4.81194 5 1.2073 -0.314282 0
18 1 6.15384 4.61532 5 -0.112163 -0.0188076 0
27 1 7.18192 4.7859 5 0.600154 0.664361 0
7 1 8.30343 5.43127 5 1.52389 -0.672124 0
34 1 10.7771 4.10476 5 0.918379 -1.72204 0
1 1 11.5104 5.06704 5 -2.77276 -0.517717 0
43 1 0.855988 6.45893 5 -0.20259 -1.8196 0
19 1 2.54487 7.27528 5 -0.171386 1.61578 0
48 1 7.5856 6.03225 5 0.546461 -0.824286 0
6 1 9.10676 6.86896 5 0.270393 -1.19368 0
45 1 11.5209 6.76347 5 0.312195 1.07953 0
8 1 2.74328 8.45953 5 0.40392 0.320406 0
49 1 3.51917 7.68737 5 -1.71079 -1.04279 0
5 1 4.34852 8.33787 5 -1.57338 1.01439 0
50 1 6.8833 7.48238 5 -1.39034 -0.236619 0
17 1 11.5164 8.46755 5 0.357436 0.535536 0
31 1 13.7902 7.76043 5 1.05245 -2.01484 0
3 1 1.33127 10.6831 5 -1.92835 1.23239 0
47 1 4.4691 10.1185 5 0.83767 0.230275 0
25 1 6.59823 10.4972 5 2.34018 0.213632 0
39 1 5.60312 8.55077 5 -0.311652 -0.568296 0
15 1 8.21809 10.9449 5 0.808909 0.98161 0
29 1 7.48953 9.84267 5 -0.659548 1.68875 0
28 1 12.1097 9.36364 5 0.932581 0.539239 0
23 1 3.7176 11.666 5 -1.82465 0.142432 0
24 1 6.62138 11.5078 5 1.45238 -0.44539 0
42 1 9.64678 10.9637 5 -1.64963 -1.04533 0
21 1 10.8441 10.8402 5 -0.691125 0.10182 0
38 1 12.0228 11.0647 5 0.0594456 -0.470709 0
26 1 0.431754 11.9721 5 -1.73702 -1.26463 0
35 1 4.96044 12.6949 5 -2.08927 1.80103 0
40 1 8.20696 13.7604 5 0.643331 2.15361 0
14 1 10.1054 13.4222 5 1.65431 1.6583 0
2 1 14.5958 13.0246 5 2.41987 -0.263438 0
22 1 11.4004 13.838 5 0.604453 0.103631 0
ITEM: TIMESTEP
120
ITEM: NUMBER OF ATOMS
50
ITEM: BOX BOUNDS pp pp pp
0.0000000000000000e+00 1.5000000000000000e+01
0.0000000000000000e+00 1.5000000000000000e+01
0.0000000000000000e+00 1.0000000000000000e+01
ITEM: ATOMS id type x y z vx vy vz
20 1 2.10702 1.7416 5 0.965638 0.363728 0
37 1 13.1089 0.439629 5 0.13141 -1.48747 0
30 1 0.367536 2.36408 5 -0.637737 -0.700184 0
32 1 1.69355 3.70455 5 -0.540991 2.49004 0
33 1 3.33797 1.97855 5 0.174004 -1.26966 0
36 1 4.36227 1.45909 5 -1.09346 -1.20953 0
10 1 7.11125 2.15435 5 0.296216 0.141974 0
11 1 8.02656 1.5027 5 -0.903654 -0.960754 0
46 1 9.1734 2.45555 5 -0.730698 0.879632 0
41 1 10.8663 2.97994 5 1.53212 2.2116 0
44 1 3.3652 4.29493 5 0.830073 -0.868536 0
4 1 3.88465 3.36334 5 -0.304452 0.568429 0
12 1 6.53177 3.56723 5 -1.95729 -1.93775 0
9 1 7.74576 3.506 5 0.492236 -0.0356078 0
13 1 13.1506 3.15104 5 0.87732 -0.199726 0
16 1 4.26798 4.80751 5 2.03257 0.0877392 0
18 1 6.13809 4.61697 5 -0.421881 0.0555251 0
27 1 7.22331 4.82025 5 0.981389 0.70537 0
7 1 8.42229 5.3599 5 2.71906 -1.75221 0
34 1 10.8244 4.0193 5 0.967235 -1.60634 0
1 1 11.3702 5.03952 5 -2.82543 -0.579933 0
43 1 0.846093 6.36813 5 -0.193743 -1.81242 0
19 1 2.51677 7.35101 5 -1.22011 1.32857 0
48 1 7.56712 6.0262 5 -0.773235 0.152362 0
6 1 9.11933 6.80825 5 0.232613 -1.23564 0
45 1 11.5365 6.81754 5 0.310534 1.0852 0
8 1 2.76186 8.47559 5 0.339326 0.338306 0
49 1 3.45171 7.63683 5 -0.668152 -0.871378 0
5 1 4.27565 8.39284 5 -1.39438 1.14528 0