LAMMPS (23 Jun 2022 - Update 1)
OMP_NUM_THREADS environment is not set. Defaulting to 1 thread. (src/comm.cpp:98)
  using 1 OpenMP thread(s) per MPI task
# 3d Lennard-Jones melt
# 3d Lennard-Jones melt
# Usando unidades (units) Lennard-Jones (lj):
# ----
# DENSIDADE (rho*) = scale (=número de partículas por unidade de volume)
# scale define-se em "lattice style scale"
# VOLUME (V)  = xx*yy*zz
# NUMERO DE PARTICULAS (N) = scale*volume
# ----
# Conclusão: para mudar o número de particulas no sistema modifique
# o produto "scale*volume" :)
# ----
# EXERCICIO:
# Observe a trajetoria no VMD para tres casos para a densidade: 0.01, 0.1, 1.0


variable	xx index 15
variable	yy index 15
variable	zz index 10

units	   lj
dimension  2
boundary   p p p

atom_style	 atomic

neighbor	 0.3 bin
neigh_modify delay 0 every 20 check yes

#lattice		  sc 0.01 # scale = reduced density rho* (for LJ units)
region		  box block 0 ${xx} 0 ${yy} 0 ${zz}
region		  box block 0 15 0 ${yy} 0 ${zz}
region		  box block 0 15 0 15 0 ${zz}
region		  box block 0 15 0 15 0 10
region		  inbox block 1 14 1 14 1 14

create_box	  1 box
Created orthogonal box = (0 0 0) to (15 15 10)
  1 by 1 by 1 MPI processor grid
#create_atoms  1 box
create_atoms 1 random 50 12345 inbox overlap 1.0 maxtry 50
Created 50 atoms
  using lattice units in orthogonal box = (0 0 0) to (15 15 10)
  create_atoms CPU = 0.002 seconds
#create_atoms 1 single 5 5 0
mass		  1 1.0

fix fix2d all enforce2d

velocity	all create 1.44 1234
#velocity	all set 2.0 1.0 0.0

pair_style	lj/cut 2.5
pair_coeff	1 1 1.0 1.0 2.5

thermo 100
thermo_style custom time temp pe ke etotal press vol
# Paredes para representar uma caixa fechada
# rigid body
#fix xwalls all wall/lj126 xlo EDGE 1.0 1.0 2.5 xhi EDGE 1.0 1.0 2.5 units box pbc yes
#fix ywalls all wall/lj126 ylo EDGE 1.0 1.0 2.5 yhi EDGE 1.0 1.0 2.5 units box pbc yes
#fix zwalls all wall/lj126 zlo EDGE 1.0 1.0 2.5 zhi EDGE 1.0 1.0 2.5 units box pbc yes
#fix walls all wall/reflect xlo EDGE xhi EDGE ylo EDGE yhi EDGE units box

fix		1 all nve

dump dump.nve all custom 10 dump.nve.lammpstrj id type  x y z vx vy vz

run		3100
Generated 0 of 0 mixed pair_coeff terms from geometric mixing rule
Neighbor list info ...
  update every 20 steps, delay 0 steps, check yes
  max neighbors/atom: 2000, page size: 100000
  master list distance cutoff = 2.8
  ghost atom cutoff = 2.8
  binsize = 1.4, bins = 11 11 8
  1 neighbor lists, perpetual/occasional/extra = 1 0 0
  (1) pair lj/cut, perpetual
      attributes: half, newton on
      pair build: half/bin/atomonly/newton
      stencil: half/bin/2d
      bin: standard
Per MPI rank memory allocation (min/avg/max) = 4.301 | 4.301 | 4.301 Mbytes
     Time           Temp          PotEng         KinEng         TotEng         Press          Volume    
 0              1.44          -0.52391288     1.4112         0.88728712     0.2756758      225          
 0.5            1.4544259     -0.53522441     1.4253374      0.89011299     0.32712302     225          
 1              1.3833994     -0.4652295      1.3557314      0.89050193     0.272829       225          
 1.5            1.3758498     -0.45727416     1.3483328      0.89105862     0.36327014     225          
 2              1.5097022     -0.58950712     1.4795082      0.89000104     0.17344805     225          
 2.5            1.4872417     -0.56764494     1.4574968      0.88985189     0.2991529      225          
 3              1.378964      -0.46083956     1.3513847      0.89054514     0.3488808      225          
 3.5            1.3785456     -0.4609315      1.3509747      0.89004319     0.33207613     225          
 4              1.5425797     -0.62364829     1.5117281      0.88807984     0.37758648     225          
 4.5            1.3309665     -0.41620199     1.3043472      0.8881452      0.36067597     225          
 5              1.3483562     -0.43100976     1.3213891      0.89037934     0.29678202     225          
 5.5            1.4966614     -0.57665427     1.4667282      0.89007389     0.30063212     225          
 6              1.3438708     -0.42687291     1.3169934      0.89012047     0.27632334     225          
 6.5            1.3846072     -0.46684707     1.3569151      0.89006803     0.22376969     225          
 7              1.354089      -0.43923838     1.3270072      0.8877688      0.53410846     225          
 7.5            1.3827644     -0.46490771     1.3551091      0.89020142     0.28532174     225          
 8              1.3790598     -0.45957596     1.3514786      0.89190267     0.34421466     225          
 8.5            1.4697173     -0.55243534     1.4403229      0.88788759     0.3230625      225          
 9              1.4659146     -0.54970127     1.4365963      0.88689502     0.3424928      225          
 9.5            1.4800075     -0.56540777     1.4504073      0.88499953     0.40867869     225          
 10             1.3950149     -0.47973298     1.3671146      0.88738165     0.46545234     225          
 10.5           1.3000691     -0.38610839     1.2740677      0.88795936     0.52308871     225          
 11             1.4040671     -0.48658737     1.3759858      0.8893984      0.28091603     225          
 11.5           1.3432664     -0.42673088     1.3164011      0.8896702      0.40442032     225          
 12             1.4531243     -0.5353007      1.4240618      0.88876108     0.15056778     225          
 12.5           1.3836828     -0.46811482     1.3560091      0.8878943      0.262892       225          
 13             1.0986737     -0.18639024     1.0767003      0.89031001     0.62004268     225          
 13.5           1.4168829     -0.4994027      1.3885453      0.88914258     0.29944755     225          
 14             1.4875931     -0.57027999     1.4578413      0.88756129     0.25950543     225          
 14.5           1.4096867     -0.49535372     1.381493       0.8861393      0.36706918     225          
 15             1.445905      -0.53211385     1.4169869      0.88487304     0.47904168     225          
 15.5           1.4205614     -0.50371964     1.3921502      0.88843053     0.34642516     225          
Loop time of 0.039939 on 1 procs for 3100 steps with 50 atoms

Performance: 33531155.970 tau/day, 77618.417 timesteps/s
82.4% CPU use with 1 MPI tasks x 1 OpenMP threads

MPI task timing breakdown:
Section |  min time  |  avg time  |  max time  |%varavg| %total
---------------------------------------------------------------
Pair    | 0.0052282  | 0.0052282  | 0.0052282  |   0.0 | 13.09
Neigh   | 0.0017859  | 0.0017859  | 0.0017859  |   0.0 |  4.47
Comm    | 0.0018257  | 0.0018257  | 0.0018257  |   0.0 |  4.57
Output  | 0.02804    | 0.02804    | 0.02804    |   0.0 | 70.21
Modify  | 0.0020712  | 0.0020712  | 0.0020712  |   0.0 |  5.19
Other   |            | 0.0009878  |            |       |  2.47

Nlocal:             50 ave          50 max          50 min
Histogram: 1 0 0 0 0 0 0 0 0 0
Nghost:             49 ave          49 max          49 min
Histogram: 1 0 0 0 0 0 0 0 0 0
Neighs:            124 ave         124 max         124 min
Histogram: 1 0 0 0 0 0 0 0 0 0

Total # of neighbors = 124
Ave neighs/atom = 2.48
Neighbor list builds = 155
Dangerous builds = 155
Total wall time: 0:00:00
